# OOMMF OVF 2.0
#
# Segment count: 1
#
# Begin: Segment
# Begin: Header
#
# Title: Oxs_TimeDriver::Magnetization
# Desc: Oxs vector field output
# Desc:  MIF source file: /home/martin/PhD/repos/ubermag/oommfc/docs/ipynb/thetaevolve/drive-1/thetaevolve.mif
# Desc:  Iteration: 1376, State id: 2761
# Desc:  Stage: 26, Stage iteration: 50
# Desc:  Stage simulation time: 1e-11 s
# Desc:  Total simulation time: 2.7e-10 s
# meshunit: m
# meshtype: rectangular
# xbase: 5.0000000000000003e-10
# ybase: 5.0000000000000003e-10
# zbase: 5.0000000000000003e-10
# xnodes: 100
# ynodes: 100
# znodes: 1
# xstepsize: 1.0000000000000001e-09
# ystepsize: 1.0000000000000001e-09
# zstepsize: 1.0000000000000001e-09
# xmin: 0
# ymin: 0
# zmin: 0
# xmax: 1.0000000000000001e-07
# ymax: 1.0000000000000001e-07
# zmax: 1.0000000000000001e-09
# valuedim: 3
# valuelabels: Magnetization_x Magnetization_y Magnetization_z
# valueunits: A/m A/m A/m
#
# End: Header
#
# Begin: Data Text
 974827.369005554 -1288850.83829076 -527802.157323104
 -524812.570288363 -14034.5559362586 1616902.84102261
 -160980.307018275 1615842.94507210 -503127.138617101
 1057575.34759323 -373559.999007421 -1277492.58757326
 1307443.78689112 -368326.261783979 -1022216.46875798
 -70297.2908369466 -1698496.25913280 -12990.3276660024
 1464013.84368283 -853551.505861085 134585.632024003
 1386745.69960920 299307.299658349 -936670.435631770
 1620887.31296384 -379438.937423521 344601.815781315
 -775682.141972098 -309780.818403196 -1480659.67027370
 732539.435253996 -1208504.02176547 -944935.979405186
 347415.461644178 -1258387.00877494 -1088928.20385782
 644520.272987491 -688144.661275844 1414584.93660356
 138760.939075523 1689236.21637415 -131249.407910388
 -815760.088487852 1300293.24575458 730597.668402596
 -451264.300074595 -208323.517131061 -1625718.86981985
 -402068.788740768 616467.254575698 -1532419.26807138
 1481687.52609038 -546900.007679515 628889.860490953
 -466532.095818961 1633423.16477548 65395.4764921651
 -1368266.92827939 -989812.511869932 -195235.253790454
 576978.557508348 1519373.75893703 -498597.156860257
 117741.368918073 790420.590238919 -1500457.35046740
 1570731.01046245 193619.012729286 -620738.085412318
 -355280.623500899 292784.741622987 1636475.71739931
 437548.602043240 -751361.566018236 1460824.08864334
 1268614.74583376 -1052745.99735490 415141.532138593
 -581848.423320249 1325664.16552053 -891104.333136420
 -679423.103747411 -1370555.52390556 -741594.095166758
 810324.305105566 -1455065.42721610 -340821.247981404
 54089.0471477547 -1671266.89936483 306498.492763195
 812792.186174585 -1392441.67405114 538957.369797649
 -765476.874135607 -1487794.58764982 -300852.821365326
 -1559851.33452485 -628938.857234167 -247587.818848213
 129274.988396492 -376120.594470189 1652822.21542139
 -839695.378141105 -1464068.91337708 203504.026523603
 486388.902795442 -1263421.59143553 1028198.28706916
 439447.324215378 39509.9406997811 -1641744.50321170
 -640057.750025994 1460653.87947542 -588911.131670195
 339245.131537210 963826.833180597 -1358657.63765908
 977136.047347281 1333657.16946820 395681.310274581
 1034501.44994312 -1344459.09601805 110618.665693917
 1623488.64733943 59175.4816506541 500782.262396959
 1396938.93022096 -360381.436986922 -899270.173589869
 231571.819058808 -1656111.18231382 -306055.949840727
 -206839.957337968 -1386978.65641943 -960992.944139229
 -747050.444411537 -1301042.50297217 -799502.369580244
 1080108.90342903 -1309692.40762363 89836.2629808609
 -139422.843367882 -1207391.71101471 1188598.55582959
 -681321.547237608 1024619.48062155 -1173011.45314126
 721626.755317653 251427.936455062 -1518564.72327645
 -1160468.17460793 -986301.755376278 -755329.373891827
 -800996.991033219 -67985.8153871978 1497925.81567375
 689202.498612659 525286.508966280 -1462557.34909920
 229516.012779064 -1273650.12693242 1102332.86898425
 -1223467.90031768 -1070269.62548929 -497643.673372103
 -143317.611358095 724585.251116534 -1531155.20968287
 1403039.05469120 775406.425952109 -565885.399708645
 -1681238.56262627 -235039.734328522 -90516.4008626701
 248916.010529740 344816.820825513 -1645947.19835654
 -1093484.80188699 -1231783.02329490 420715.547091682
 -1167785.01184509 37285.8433846013 1234863.52767950
 -96107.3924392271 1123282.25603256 1272399.44294272
 1089023.21151948 -1016451.12004118 819057.730162424
 -903815.929835958 -1384380.30924203 -395737.191021648
 -215749.049751262 -1668327.56516255 245225.371546734
 1415941.11573887 -402335.440745978 850433.389443229
 -511716.942245597 1499316.91974653 -616599.177083941
 239848.559646966 -689480.406276991 -1535281.55000814
 -768324.604166957 217773.798231356 -1500750.43742642
 161835.627831151 -1386050.78294023 970913.207591331
 -1450670.05867446 -77110.7660147553 -882955.440908580
 -1151117.82043088 -709579.602291650 1030254.60518169
 -96928.2506998719 -244865.220305907 -1679477.87663333
 657413.622825637 -1531482.59557123 335213.943602710
 990316.325500704 -547964.700933058 -1268466.89431697
 -1106031.49740689 -1192496.36818723 494617.770206596
 -1199549.75007816 1114640.78898778 -456789.129262181
 1328494.06347690 2897.11318336407 1060705.01556363
 -177976.483068548 -191932.623065178 1679728.02550826
 926567.687630748 -1237468.51208452 -707208.598532242
 812161.460226634 -1312573.98447616 -712420.730887941
 -1683209.09919256 231661.839233301 56034.9947658858
 1435051.23435624 694192.631309905 590529.038581233
 -125152.940958086 1646040.57828519 -406062.995122814
 595593.776772100 -1313050.70720710 900647.485630908
 -497003.169023143 -1236445.39894144 -1055552.28454942
 996178.076213955 -835924.989823757 -1094924.03930995
 683248.349052591 1533906.31986241 265147.308873879
 1393591.21375198 477736.927631985 -848334.224778199
 -864543.098991291 407942.667608454 1405755.31652241
 -1059043.44747809 1152527.90393454 -663405.160521059
 -608637.303036004 968374.867215140 -1257700.58038435
 -423357.827548477 1265979.16137208 1052646.62295809
 561502.201737787 1434850.64654953 -718274.947036302
 -305926.464614308 -1482422.75076282 773842.223111005
 1203378.13022463 1013839.23338328 -643436.931291550
 351568.544527992 1601369.21815482 449462.107017580
 -45928.4090636767 570638.095055562 1600706.95185354
 219752.271921967 490507.058039519 1612796.25650562
 865430.329369582 230131.798408246 -1445015.46717281
 1031317.97725994 -361135.769213166 1302291.89737757
 260892.152592185 -1571441.45784452 -593723.024046836
 1189505.10961161 -569309.251718833 -1072830.16834689
 460612.952687578 -475555.849292207 1565784.89647218
 1005700.19408973 855800.571977309 -1070594.46132100
 -251143.925822574 1424612.05388603 892976.609125377
 -672503.821610187 -1365672.41751579 -756754.555953430
 -357333.639999017 -38217.6736354753 -1661581.19848142
 -1688973.86468481 -129293.266485954 -143702.942395242
 -387547.956891188 -1479802.60009306 -741613.676968869
 1593586.68763927 93538.4805411141 584578.499123045
 1286113.86978922 1027028.78004898 -425585.477767846
 1097951.68265239 1297686.09746672 22647.1853082206
 1016969.49538781 1128320.75675690 -763325.170109170
 -1331718.53461867 829941.422676331 -654005.335971428
 190383.029153690 -967970.375070511 1384481.00571879
 1411247.26271532 -259006.159459442 -911754.886381530
 -969261.064753831 -595549.477224980 -1263271.07484076
 1055790.32971615 415135.519282312 -1266084.23112685
 -1216063.43862973 -218271.103201321 -1167710.34025366
 743221.682591358 1456945.20537645 -463607.807372406
 -1498239.39425562 143335.631497195 790400.919941180
 949359.482444269 -10959.1464970182 1410176.04227316
 -1094418.69520284 -1099852.72926131 694673.803685549
 -1119861.26212055 -1157748.88259344 -543625.126769746
 -94555.9175439022 -115343.960153818 1693444.69921916
 -1448039.73595576 797027.614400268 397401.440581936
 -1235831.24497985 1104664.87571513 -377407.798399604
 612490.925722771 -551620.566345127 -1486798.44521453
 124668.347123623 -1693704.95729827 76297.5808838645
 -1492115.75194452 464318.887735493 669326.940508974
 -325816.259021142 -1622382.49484995 -389510.982851452
 211750.857534422 36853.1422172109 -1686358.03441682
 -1282365.18343289 -1066709.39239560 328131.998583099
 258298.527698394 1239396.16577990 1134539.12001258
 659913.895652687 -1564751.07605544 -77895.5730952143
 -1481670.03056857 -246113.400619827 -796292.731694993
 1001872.60043128 -1194293.34844956 678170.104291089
 -26823.6230641611 575448.728052803 -1599418.41136962
 -881831.182082327 1133753.81973967 -909382.231260873
 -345367.507057641 1149490.90440931 -1203906.95061913
 1621242.47548088 -283769.512693666 -425497.002765283
 612085.003658731 75042.1537159510 -1584209.77886824
 -1256695.72016290 927248.434181165 -671510.393242597
 -916119.929072241 433448.019487089 1364861.56439376
 517467.893352065 -175293.952447400 1609813.34619426
 693044.238696681 1218060.84139216 962298.015105695
 391150.245320661 -259526.068962535 -1633905.65979632
 -480135.300442945 -1389857.83819732 -853091.602859883
 998746.131684712 871508.457242096 1064414.94418311
 1655698.09804360 -260341.121531356 284405.183804033
 1402116.99809650 599423.228063284 -751504.968251739
 822508.823203194 -1485351.59254956 84911.0255701784
 654191.322095958 486134.368896602 -1491880.38711951
 131334.818047387 1176564.86088904 1220018.97267609
 -403564.581193721 -780088.081696245 1455540.52283041
 839673.550223515 1432272.59424692 365436.102245288
 -119819.202485350 1605290.72388354 -546520.860104385
 727548.637809502 1035458.94464505 -1135120.14940098
 1316804.69917474 -1074626.75868381 34680.1636680492
 552786.311209599 547033.391741138 -1511681.76626546
 1570013.63807715 441687.862221605 -479550.840493340
 1426790.37962603 -366140.078264233 848652.258404628
 926079.017252477 -1138132.43184563 -858505.807426971
 1312353.85762651 -1080125.63577936 32495.5890091559
 836749.685657539 1422469.46160951 407959.059637558
 -1345523.63013011 -750289.258852995 718771.304944283
 -779407.605615441 -1497726.14798503 198343.565438169
 143781.221824876 -1650834.21155523 -379569.975379223
 -1329072.08216399 635888.688767787 -848064.252229421
 -585258.291523622 240914.697372809 -1577793.66229955
 220569.339968045 -314152.983012945 1656096.93844597
 921699.383417352 -1030539.24061522 -989170.925654550
 1078365.49745950 -1176132.76896560 -586378.345144372
 -634550.958933331 1515497.25601302 -436592.656298508
 -1141120.78286833 -1259863.24760094 24247.8091876220
 1076069.75420702 1238280.21302429 445798.158490332
 583206.337046594 -677074.843051722 -1446181.18689713
 -596952.415933765 -1528415.51776405 444515.262020206
 1501382.85030890 118856.849642885 788493.871942764
 593763.090497207 1577546.73594866 -220888.406805154
 -1424747.99087104 -691263.337440654 -618262.210408614
 419338.656548209 -826374.891684085 -1425222.65962847
 -46880.3839362964 -1681219.09621803 -247597.617342791
 -414768.228537703 -1648318.05446862 -31857.6193158111
 -778286.022406822 1488335.04708746 -262925.188860495
 1524170.56287138 298175.520322722 -691372.153298502
 1092783.53657483 -22179.1746375722 1302049.24115926
 346644.190617147 -1294019.66523863 1046590.13519481
 1493743.23214253 -511640.250426654 -630043.975109462
 822162.153640585 -1324027.55697887 -678970.118253852
 -1200602.78381333 -1185343.47170287 -208599.639479752
 -186013.974875226 1303917.37030239 -1074801.51310594
 -838312.716001870 -826201.185968900 1226630.91045887
 35403.2821976277 -54056.7790683988 -1698771.45968679
 -514212.389914570 -628960.619819444 1493316.49584898
 1381122.65027715 -921635.968738464 -364811.411579916
 -550916.261855745 -1369677.92884469 842895.986263198
 844402.422403752 -326680.175389525 -1438841.41309810
 1541080.98515921 -157580.449967025 700169.835803353
 -459702.692485246 795776.720544868 1430179.30538820
 400153.570367023 1012960.63122281 1305292.25835259
 1307566.61653225 838647.676022237 690608.151438218
 1153012.81504358 1223771.24307348 250889.204573795
 -1592849.32002701 -112429.670061400 -583258.615863816
 1542364.39908952 472035.167634227 -536930.964778290
 929829.174954063 -826761.865204776 1158396.53126525
 -1298454.58761831 804836.969083241 -745823.797615669
 1619065.90632543 412360.492198512 -313981.552719927
 153533.246405922 -1535647.46858343 -712891.572738362
 -1551766.04857107 -684482.295476455 116215.823713551
 1102806.86431280 1217062.23350978 438835.435885438
 -98707.0318767582 -1128027.27204468 1267995.02971483
 -682326.469313343 -136120.303903704 -1551096.98347316
 746821.409096136 1452404.29283540 -471995.289244457
 1037325.56357367 834997.839298018 -1056756.49206627
 -212040.340777766 -1366768.54012878 -988424.327703997
 -1166444.53760665 222046.146620369 1216594.69399577
 108378.249352550 -857962.732875252 1463609.95626038
 -741275.522216733 -561706.267070118 1423023.77692590
 86092.3299920870 444338.209315510 -1638643.23953044
 -1235606.10857946 -968265.870287783 652486.589039927
 410421.743794626 83803.3831983337 1647583.37730905
 1519999.69803761 478256.949372676 592343.826119855
 1698630.78293587 57442.6133785576 -36794.1494115842
 -657653.914938724 -1160894.80158681 1053477.37888125
 544811.206625386 -1339951.63288035 -893146.332174443
 -857018.869445165 -1446685.16620553 -250241.258180620
 -1019251.77082984 -408375.225812865 -1297827.22370989
 -206787.425286516 -201780.487906945 -1675268.21597122
 1028820.88444215 76933.6025330941 -1351150.91997044
 -567050.661261136 -1105739.88483118 1160083.12402898
 -723872.785656405 1202626.44370505 -959008.773206674
 -1329815.98871380 -499753.052849338 -933721.758517446
 1450747.27399886 885616.784514102 -31863.1130271853
 374456.427393219 -589147.736608347 1550060.42734894
 -1320830.59890998 785029.677084764 727416.617269160
 -699905.882456785 331253.665841661 -1513407.66635063
 894767.029050818 -657953.523162820 1287046.66779461
 -1636597.00182274 -284045.792292556 361757.158195538
 -1059244.22947538 1258328.65556144 429663.422827735
 -838500.987614498 -1372613.57700609 550316.329021825
 -18380.1206048833 -1469407.43640206 -854695.242184531
 1065642.32922864 805577.583996488 -1051404.38572347
 -799372.632901713 -1276033.59299418 789139.824947488
 1593839.61331569 -309342.149405861 503966.984659380
 -354108.073852585 477068.529220547 1592800.39253503
 1412883.12166649 -875266.532454425 357309.084232616
 580797.400318182 1576576.53548947 -258999.628431539
 1573612.68626520 619497.423315291 -173107.065514222
 -48466.7188345385 1028424.31572380 -1352772.85750175
 -835111.464841843 1434109.26154243 -368672.574580659
 -48468.7504119016 -422381.946594974 -1645978.21110249
 -9830.36258928434 -257359.302010965 -1680377.80086497
 181328.480513936 -1689614.61982882 -48191.4786579106
 897730.318122833 -783772.037183291 1212345.52403703
 -920069.358692554 -1239278.88361073 712502.788648310
 1299858.42247234 -208203.312795739 1075648.39146842
 -758539.888599412 -432763.385516473 1458537.99729726
 -726022.456276577 -1380797.72025001 675491.708856961
 -561647.245900065 712491.162817571 1437674.75949178
 -335278.776183646 -1322436.16711626 -1014273.49671756
 1391948.71532782 -186996.741503672 957867.941088044
 487192.903249135 -1518631.75858836 -588558.116782452
 1128797.71186972 -1205557.95459676 -403045.585245840
 -459029.303771197 1609212.64690774 299544.245999680
 -1559553.70904615 487525.581265272 -469159.926051191
 438427.267335807 -125479.187917451 1637692.43286279
 1061904.18517199 1307597.22513926 -229235.682916796
 -856689.103488894 1468112.70149278 -26997.6976602997
 1519088.20940038 762932.894999784 -17447.3432937118
 -1302554.09952408 -216965.836635677 -1070644.03213486
 489142.897097651 -1486143.83656349 -664917.831963672
 -297168.378369140 354373.279695550 -1635882.18815882
 377442.724446954 -1614807.82224701 -374075.777045146
 677096.190232526 396811.304902075 1508005.81480129
 -214257.043370406 -1019566.08177881 -1343346.16694744
 -984952.648400802 1075420.96707062 873692.179198795
 973968.583444808 -907738.552867335 -1057069.49539793
 -77614.3985661334 -1698225.98628792 -2122.41174814987
 -1370504.46081236 252377.186751849 973664.869706538
 662969.372546299 -1004667.19156762 -1200464.67888613
 361314.524060888 -1647423.26811566 -213186.280922963
 -93959.9508483961 175737.766217592 1688279.52814734
 -498851.734624346 65193.6642029031 -1623852.43572502
 1538906.41349115 300416.593006208 656899.475690421
 1695326.63734693 -66588.4709110838 -106927.864673764
 -48332.0462650215 67623.2378991140 1697966.75791956
 1011798.15167474 -933558.039763916 997363.467678529
 346923.974559446 642920.409571170 1535023.48608506
 1172038.25935412 -497360.538462677 -1126480.72038108
 879301.418393192 1449185.19475338 129194.763513580
 76945.0084792832 -1244318.64548390 1155746.76039833
 -1595643.01741652 427378.556333224 -401585.520850080
 999012.727263179 1152337.68295648 751060.207443242
 -779535.351915020 15342.1891424001 1510658.54922515
 -1574222.65769748 -232736.190189007 -598044.220579209
 1500820.08091892 93180.6862775708 793004.693816727
 -814491.292236291 -1125815.28028673 979358.917631409
 203270.729091544 1566583.25933509 -628090.679970376
 938445.432266495 -134972.684043016 -1411064.33064562
 -713276.674476667 -831505.215786164 1299936.71452418
 -1195782.97101578 -1143895.23759915 389367.142458949
 -1068011.23376428 -446380.616991362 1245028.65401874
 -1521654.24508064 287820.256750141 -701233.098357703
 1105506.77522209 -994589.223448151 -823800.368134690
 1444836.37689579 -546340.159937580 -709901.594334050
 -899472.101731936 1437183.93382231 124307.194357212
 -70346.2749038768 -191708.618997342 -1687690.49502842
 1168113.80781712 706267.585785424 1013260.19819976
 -704266.375855654 978197.005983470 1198807.52805616
 1629591.90869505 -249824.832886082 414750.242904173
 776869.953974914 -1380306.39525486 617436.093721078
 689888.250078249 1536096.15420626 233372.679285097
 -1363701.87931762 -156441.558716990 1002917.35604275
 -1649209.59983539 315672.967002202 -265439.774176379
 -1016229.00305833 355960.865247246 1315511.48826435
 1454717.68780168 -137683.236706796 868815.155903065
 1082564.27474759 578523.284200915 1176165.54986005
 -800765.700767196 -1155695.00461693 -955585.343534682
 1677060.75441728 -253410.938936227 115109.174355532
 854534.158117159 -771931.419521583 1250557.17828750
 1268067.35135490 589257.518699837 -966840.612036692
 -164074.614640438 -1641826.42361917 -409249.942622458
 -1333463.40378205 321475.377694280 -1004255.41188997
 -1070778.71614274 1033595.39540653 -821652.907041732
 56215.2373297777 1698640.59914715 -38209.4493674458
 725887.065915119 -907312.724669787 -1240915.62452466
 893314.354085899 -1189148.07889046 -823356.733898028
 1694881.33356037 129760.138220371 -23228.6822191401
 816022.008983687 -324835.483875073 1455537.69764643
 -852044.863111600 -1149113.93313916 -918453.439163129
 1680580.39235264 64837.4257664167 -247882.337127548
 -1212260.38027854 856447.818069986 828807.520073320
 585997.102892091 -775414.612791335 -1394754.30584449
 -80840.5773394840 -1695971.10040084 84538.9121090327
 1317072.89496648 -1009276.12985831 -369703.506938788
 -806066.464415021 -939538.479198972 -1165128.44830514
 -1466434.11474949 -793478.250061443 331607.077394775
 -916799.897224574 -1161934.23996316 836293.471486079
 -910346.694691918 854980.022723084 1153376.80582190
 1365746.55613111 455574.903784836 -903984.430981781
 939595.264480939 527451.350123296 -1314897.64324761
 1669742.84706568 -93520.7631718663 -305307.535984195
 -806938.565915343 -904002.207489203 1192321.33239875
 -997803.294713125 -828036.041778626 -1099429.35133424
 -1082262.75036286 -1078085.16534067 -745948.869192384
 -449688.105785450 -735573.926935197 1465166.06755966
 -1665557.56005270 236222.933968653 -245187.152229789
 -341226.306917244 -1611421.04369298 -420579.157128656
 -1420141.77658848 730972.973259880 582130.437918960
 1523106.48742522 -644680.553416394 393107.634128272
 -1251325.11505873 -1124715.36230863 243312.166177963
 1399636.25372828 -19289.0467931169 964700.103619399
 -593646.443476123 612085.314707331 -1470692.17298107
 -1286104.44258101 667920.535978606 888716.783003137
 -268378.963197783 -1587849.17091081 -544708.860356362
 -437705.461576146 -1438511.39369608 -793157.549994316
 -183875.366515564 47167.1281492613 1689368.25813998
 -1062233.64269393 -983779.088875144 890976.089814520
 -1274971.69523725 106139.751604099 1119455.90778434
 -784525.727481110 -1338337.78279532 -695249.136686081
 594542.931953196 854398.460719986 1344069.18437401
 -1651106.92448619 309615.346306648 -260737.916776950
 1589704.31225581 -337902.030758344 -498660.623274655
 -1301751.56861975 595854.806717553 916733.277953631
 1339195.64955615 1003810.38929622 -298194.088725536
 -370179.405498609 546325.535325735 1566682.99831068
 154066.716943039 306504.034209433 -1665028.14503051
 -1372250.81357952 1003386.91835075 -11933.0093834733
 -697706.201110355 -713243.372454382 -1376404.71830856
 -779156.150819410 -1290216.75710151 786292.828617144
 -1137666.23596769 1039214.15167978 -718157.004064983
 -359055.451330785 1247955.29769259 1097126.59152472
 -264207.503348129 48846.0264351726 1678632.91427162
 -1300872.72255070 1001800.83137587 440596.475222101
 873364.307607570 807384.910436275 -1214645.78894300
 -573276.046238556 -1323641.69489349 899626.165887021
 847270.422688217 343124.518128248 -1433317.26979653
 191635.846221320 1639028.12193777 408488.087880393
 546728.806762043 -1247442.05457457 1017337.66878816
 333109.580782731 -1602771.91284370 -458432.331527902
 624089.136578104 1482371.23484719 550534.532706896
 -938610.074039672 1289593.66443254 588183.057871184
 1120681.62448670 319854.054873434 1237645.37736739
 -241944.851605242 1643176.30025962 -362538.735926007
 -1501370.11817410 -789200.988397416 114234.706488099
 311991.393634667 350232.347338392 1634013.05783514
 1248754.44632348 -569554.915588173 -1003104.94511625
 -830028.493680935 1324891.36731578 -667619.326030841
 -1076962.45778836 -430761.862271589 -1242817.79940857
 649296.152353152 -1263583.16885143 -933687.357703192
 772799.417314839 864485.971847235 1243159.30800408
 1551865.57591603 600800.973980080 -347493.055975809
 99175.1439819608 638704.843418200 1572329.61360215
 -539250.314310200 -327306.273692368 -1578632.22497134
 -344876.802181929 1661115.79911174 108417.218457895
 -1388435.21420956 926683.297925494 -321723.050602218
 735191.778964338 15322.1388974045 -1532729.03026036
 -387866.971118446 -1007234.68027402 1313406.83398888
 -1154588.60917276 -1226866.94836131 227426.107971652
 666980.892208201 -1350235.73053893 -788669.741656901
 -81024.0366402292 -1688250.78663091 182330.433352884
 1207657.83579994 -541558.238471698 1066900.75732209
 736617.756657951 -1515313.47513151 -226316.929682859
 118399.285208316 -933783.246119951 1415637.82745724
 572996.248229003 1308026.04140783 922357.400639493
 672883.044296566 -1306849.19132817 -854033.722884001
 -724593.919963034 1463100.28782359 -473604.475193323
 -733084.197983778 1381031.86107066 667336.914439915
 878093.327757944 1270253.46214554 710920.705602421
 1134565.76201421 1253664.11772464 176314.524628045
 982748.744610767 -1188969.84797567 -714531.738672727
 330850.704233224 1404003.61625636 899617.505969860
 1440728.09033087 135589.792199084 892142.352981285
 1639468.35297243 441121.009605528 86923.9580695496
 748175.330032031 212595.984572067 1511633.75950502
 562744.976341386 -882621.521215171 1339513.84535224
 -1068848.33394322 579946.935324156 -1187949.82690134
 1157992.85466313 76040.9676785005 1242284.31519666
 -672493.886660686 1225221.86777835 967772.363276482
 -1660793.02072354 306852.629284210 193927.837654497
 1283069.19018404 959497.491897164 568417.114664513
 -1603705.77143136 -537950.602847968 169519.755701996
 1494652.23339311 36747.8317588565 -809113.278888701
 -141315.949542901 -1588337.29793176 589249.039374365
 -733978.258033792 226189.680296576 1516612.72092153
 -1325085.25002198 484114.482305572 -948568.525830472
 -911917.964718077 1175547.42526406 -822492.478129417
 -1073990.09949262 -1303490.43256086 193540.585961032
 567172.521624800 -1226775.23230101 1031182.74817152
 -955295.014621557 -737692.590420604 -1197172.11673081
 -352398.883522636 -96033.1052852270 1660298.96993923
 1155784.77905737 -978358.986680779 772641.726597947
 442634.221222267 1332229.75047055 958769.439523467
 -1375159.78320570 -338551.091570784 -940382.224975506
 300399.288002470 784098.032029987 -1478157.82105102
 -1665845.73936554 -64891.7585065996 -332786.767037967
 -446853.306867706 -119983.277014661 1635825.82672429
 1319942.82775391 1032507.29997928 -285796.443208290
 1208025.42576677 884592.698706418 805090.260838068
 -611800.726413052 -1492900.71302419 -535674.651455826
 -1034056.80335606 1349307.90266902 9731.96937765903
 1066410.93634722 1261050.18085137 -403137.887345961
 -1100876.95663242 709854.472577444 1083594.27560205
 1184991.93568743 1161100.03741260 -370999.751315561
 178160.659839270 1252256.14424898 1135831.55814421
 -269839.480211752 -1579042.55687847 -569044.162157710
 827260.738861291 -1314773.11721136 690660.061243584
 1211237.44407057 -870310.013769552 815759.973284932
 1596260.12148324 -68047.5937649695 -580795.273349480
 1654194.46027934 390687.999050841 -31679.2515502883
 1533020.99674383 -16271.1438673295 -734562.368638510
 1470154.68696189 -850252.675067065 75601.4877187653
 1203608.06718796 -355491.358365422 -1146714.22539688
 651136.700700489 -1562042.59548687 161381.308972063
 -675094.344884023 -709963.038174886 1389316.41821836
 -927933.020481943 -1003656.51259931 -1010749.18462310
 -495767.036950296 -107537.075980826 -1622544.55173441
 593970.489076196 1421064.50171573 -719565.660707912
 144144.119853114 467437.307374022 -1628104.67611474
 877598.529133478 -1312513.64097202 -630181.532516732
 -556506.429590935 -1574882.47570034 316300.144729503
 1590336.35644049 -600471.202033106 -16266.8040041083
 32301.3956958835 -613774.043943748 -1585004.11444798
 447557.034543425 228964.734225236 -1623966.70264875
 -600481.999117569 1393429.79973856 766664.699811026
 -401665.957062117 -1633792.94556229 -243690.520883099
 1623828.59427908 416282.268112617 282647.783746221
 -247460.517891137 1356507.47438759 -994309.189344869
 193601.597047448 1669332.06000265 -256610.395479217
 668508.867555139 779293.362589364 1354916.14095645
 1138872.00822372 572141.113027719 1125000.04251906
 -1321729.03105428 1068057.57222279 47805.7620571627
 -1635116.90335775 432574.319641037 171091.117071764
 -961091.443281566 -666134.623702536 1233923.78239324
 -1159182.10548694 -600031.041528107 1089155.45057699
 482584.454260089 1136338.23396922 1168694.85432520
 412771.590258325 1534548.07227005 -603971.711397043
 -586989.836464542 1190221.84906501 -1062457.00237497
 -1544148.01512188 -434399.975940053 562941.887141517
 1263827.55935640 -558807.673611472 990188.812360648
 1272017.10081053 -1038223.68560548 -440527.041046689
 -739942.368321698 -1316798.65077806 -780081.152747299
 -461894.827629502 582319.493681302 -1528907.18341169
 1199682.90693659 1145924.35729624 -370969.392483223
 -1304828.62115988 784946.377802359 755831.630309933
 102252.106976310 593205.620060399 1589858.98712674
 -845610.421454274 1428560.66738535 366275.080680412
 448199.748700579 1541107.97002584 560449.114539030
 -306850.210242992 1425111.19844419 874586.199606870
 1596971.03287384 582314.284251819 24363.7952327399
 1688399.76756984 162838.198100230 113092.643923375
 242990.040551414 -626173.690902809 -1561685.73951803
 -542830.195355046 -1255411.71218447 -1009592.39890208
 1164066.93665914 -1173132.71939269 398381.462504629
 1174562.97730208 -1168965.33927977 -379370.330829689
 -845157.372215359 1419292.44324906 401644.092109096
 -800726.904113874 -1461888.43096197 -334243.385047115
 1507018.00775876 756334.161391138 216460.990951188
 -1202898.30999623 -431760.587058477 1120989.94253790
 -1275232.33019407 24670.9782068849 1123910.07062937
 -654176.467520469 -55153.8574575869 1568123.46495740
 768404.725318799 921802.024327671 1204091.02897295
 1067911.45169884 -1266031.05724909 -383054.165114058
 1012341.29200181 -921774.440421796 -1007718.70553900
 -28348.5766133801 933128.589062834 1420727.76930614
 -1366517.26220240 -8410.53092718192 1011217.00691414
 273253.743711664 1267085.67681690 -1099921.03314420
 -857311.941644666 434417.308832397 1402247.42342436
 269540.887330557 1056386.98972640 -1304375.03732394
 -834496.959604345 -670252.513084851 1320748.42158321
 -708830.519393074 951337.974018469 1217585.87129097
 765570.106401498 1123272.81600029 1020862.67098919
 1077331.04353528 1047599.58701055 -794916.931465493
 -880547.407808128 1430089.19306047 -263592.796741566
 557815.334473803 -1604316.74136599 70780.2656020010
 1698652.82993029 -16464.2949934825 65631.4738534702
 301847.072797052 -1468239.86235222 -801972.600058006
 -711267.869695053 -759229.085212038 1344495.89575705
 -210165.704541441 1648853.35943497 -356529.067138456
 -362246.827942889 201312.070396057 -1648711.82623228
 1080380.17284386 -9941.32566698219 -1312508.99127200
 -1115917.52399351 1195059.30306319 465361.517324217
 1208802.82189608 715536.168291799 957498.683885446
 -267592.259883307 -496734.041291538 -1603636.39104154
 51628.5177320276 1600918.78333774 -569555.568240006
 1443721.89590875 697138.658032027 565389.050787993
 940796.303926940 -157110.176084776 1407202.43998084
 770264.239790744 979874.323087539 -1156087.93430834
 -1635616.58670293 -253122.447147848 -388184.760200782
 -1055097.27106733 -1308289.22305798 -255243.133926462
 -1191378.50755198 730252.773961160 968167.412106629
 1568932.07596687 -329152.419950608 -565783.373247160
 1024239.08328880 924400.317408060 993185.961157121
 -765714.870483001 1386495.48025580 617503.862620666
 -246558.448753340 683323.603560007 -1536970.32637788
 -1128115.15041435 -291073.469350054 -1237995.33232001
 -785717.034816562 777389.029821245 -1291632.70224652
 635283.295010559 -693011.756665287 -1416386.19034648
 -1100164.87540748 816108.137756015 -1006779.39709156
 -1355838.03814073 241602.099241716 -996660.242997926