# OOMMF OVF 2.0
#
# Segment count: 1
#
# Begin: Segment
# Begin: Header
#
# Title: Oxs_TimeDriver::Magnetization
# Desc: Oxs vector field output
# Desc:  MIF source file: /home/martin/PhD/repos/ubermag/oommfc/docs/ipynb/thetaevolve/drive-1/thetaevolve.mif
# Desc:  Iteration: 2549, State id: 5107
# Desc:  Stage: 49, Stage iteration: 50
# Desc:  Stage simulation time: 1e-11 s
# Desc:  Total simulation time: 5e-10 s
# meshunit: m
# meshtype: rectangular
# xbase: 5.0000000000000003e-10
# ybase: 5.0000000000000003e-10
# zbase: 5.0000000000000003e-10
# xnodes: 100
# ynodes: 100
# znodes: 1
# xstepsize: 1.0000000000000001e-09
# ystepsize: 1.0000000000000001e-09
# zstepsize: 1.0000000000000001e-09
# xmin: 0
# ymin: 0
# zmin: 0
# xmax: 1.0000000000000001e-07
# ymax: 1.0000000000000001e-07
# zmax: 1.0000000000000001e-09
# valuedim: 3
# valuelabels: Magnetization_x Magnetization_y Magnetization_z
# valueunits: A/m A/m A/m
#
# End: Header
#
# Begin: Data Text
 -617912.514978157 -1009822.22893234 1220017.70060417
 192823.255163264 -1425825.91526387 -905449.971909093
 -854911.677174520 -1225860.69824224 -810179.963178359
 1102229.37851591 1091771.76505320 695071.802167993
 725932.977320523 1291639.18263698 -833480.374283300
 1630031.80892997 -203401.979015876 -437748.714228746
 866380.488643216 -1382952.12898356 -476264.903009020
 -1457034.25333737 875209.344358974 -32554.3875436567
 1047958.22063944 930670.065716797 -962100.200900563
 -551645.111561010 -1164780.73965915 -1108590.77184050
 32026.0605997768 -1013532.76422915 1364450.68334348
 281672.558322264 -364286.184007305 1636446.19405271
 587578.540201633 1236628.10594815 -1007721.38345557
 -1092207.57587454 1159716.26362562 -593414.525508516
 -815453.921433813 -216385.275551321 -1475876.79517729
 -1017122.12408324 -102859.240385312 1358264.54027474
 1313050.58755298 -208803.027655997 -1059386.35547587
 1648719.55751657 414285.594901254 9553.35122706312
 131409.298624765 1374154.52398510 992184.932583760
 -773647.108374127 1081817.16138247 -1058839.82785061
 1105830.00121470 -344426.212755134 1244391.65554123
 1217414.92856615 697508.273130249 959887.024924879
 606809.533100769 -227924.746278913 -1571570.07497971
 -1661924.66472361 -244153.497551066 261525.292117013
 -1177269.46820777 835438.874347776 -897818.738083753
 215791.765859961 625560.000158663 -1565921.00694401
 1433613.16581985 -808878.786797479 -424815.723646184
 -1567501.48900580 364781.534434447 547607.080031169
 -289173.899623517 -417587.790255558 1622343.64214429
 -1483310.50955027 556941.247917781 -616122.048481880
 773289.944624812 253954.543866883 1492491.12265082
 1644305.35623306 -34717.9054113492 430179.686302281
 1498698.17679505 -726932.928421548 -339812.142878503
 -570709.938629974 -1600982.30547904 33850.0146528023
 -751649.630942069 1469491.75673401 406960.451635607
 -578060.180083959 654977.716202950 -1458372.59281669
 -53913.4754770905 677373.788356735 -1558286.90811712
 366451.070517344 -1641417.28172202 -247917.163949979
 1376400.87052942 -837373.473769897 -542518.487272443
 1088400.61923389 1215229.62784884 478122.414920753
 -846645.856363202 -1453981.62886204 -243162.942971801
 -137587.339002468 1658997.90611820 344667.479814440
 1607395.29634551 7829.93871140608 553370.629276727
 364804.922374824 -956530.366172291 -1357190.85879673
 -1615242.64258837 508473.040118970 -149821.136814237
 -900963.717185480 -1267253.74384048 687264.380742672
 -872795.142459321 -168132.543651736 -1449123.90328247
 1414122.79284478 -942625.011251198 41410.3238401847
 249284.149129795 -759505.354907102 1500336.30525295
 480862.402744866 408057.031892446 -1578689.58581146
 1328474.16706408 1008624.75474050 328378.579642553
 -1565589.53831234 -386118.654329920 538369.559229909
 129055.787577657 402998.111025447 -1646492.37052670
 982156.601418012 815221.811275919 1122845.40730727
 1621349.46544651 -105339.828725314 -500129.414632291
 -969851.526491384 1352036.17069837 348405.237741355
 279524.290161079 392348.330588494 1630315.60094798
 382416.146828095 1204319.62720919 1137265.19605757
 -870269.301477063 -1018937.91758806 -1046134.24712507
 -1484975.40411874 531606.379486093 634226.068884012
 -717524.347453326 127596.898203870 -1535863.87495130
 179808.893610970 1311154.70433269 -1067024.88400443
 -408430.193601370 1521776.70886935 638263.601733261
 1151473.95324965 459736.078130997 1163078.01692421
 -1617576.89244739 -312251.175849366 419457.030219941
 1002364.31018820 -460909.869955938 1293378.47571318
 -543231.192351021 -767801.056491605 -1416114.89975470
 963242.395647671 938378.050607933 -1040005.15448924
 1037613.02329058 181000.017138255 1334390.57539153
 77621.8763107914 1697953.49018397 -30476.0478092951
 17715.6867802295 -1589598.50149952 602380.908124067
 -121122.631081317 -1207439.16597852 1190554.47951828
 1643358.70273923 -5686.52875328638 -435131.977131065
 -1235870.16339988 -563217.408353456 1022453.46600497
 -572156.754806094 1593281.49449430 -155211.878513726
 -575017.485898324 1546620.58430776 409047.257791439
 128009.303612120 -64720.5103048824 1693937.68295490
 -419042.073185043 -1261281.80842133 1059986.76437312
 6386.00427737904 371524.062383295 1658893.93573537
 489072.305285451 -1123536.65039444 1178335.12865535
 792501.276868945 -917352.515703292 -1191807.90738018
 -366670.027575184 770015.274899969 -1470588.17052863
 333642.096677763 -1128074.51282879 -1227245.22603698
 433674.672222407 -484288.462959917 -1570793.10009839
 -91954.3533560379 641873.473203927 1571477.91626100
 -788738.341809661 790266.368205507 1281940.28544337
 -1083302.45482112 152700.313667808 -1301206.51919067
 1134563.73248957 -1108733.88343257 611125.447553815
 1361698.55425251 387110.660635831 -941234.499882311
 859806.149785942 1156675.61917982 901573.567040008
 859949.395372618 585844.596725677 -1344348.59537458
 259771.819178481 -878841.267096203 -1431836.80257543
 -623160.494552684 -427859.754310968 -1522697.28727341
 563706.040911131 939107.607765647 1300120.14847743
 -283981.688090182 976252.141212187 1362455.92868469
 -57236.7216333127 -1641704.96489262 -437639.995822578
 -629025.499167525 206761.824552036 -1565751.08791435
 -1591259.71732053 300888.466887405 517067.348154120
 -1636919.40778543 151483.586037056 433067.633951959
 1290180.50214246 -371342.900578414 1042851.24638245
 -16153.7314722919 -1171949.44391999 -1231370.60134435
 757645.597897599 1394280.63982699 609880.845239486
 -1301319.31727641 1081977.44603297 -160912.525178187
 657943.679788225 1559771.74416315 -155634.894342374
 -775210.593745587 -490846.570998523 1431124.79507680
 379932.137154370 -158917.192834904 1649362.57292894
 -489617.375676424 1627062.18857788 -54253.6628799145
 -46290.4776486507 1691681.40181521 161465.867698335
 140637.035718474 1628589.45920448 466816.449530638
 785346.653493532 -1199768.98071677 913118.298336170
 1212453.86806879 -1009040.42590339 -633871.467016555
 1682717.87584542 -220660.555327481 -98840.6274405555
 -1422356.98229671 -838688.821348936 404353.404655031
 -1010588.83003998 -1335100.87747354 293625.379638402
 714852.143692632 1403644.14628575 -639350.860839172
 -1254444.23000645 1110482.45252549 288441.322345661
 -723167.832735099 -1003126.12923797 -1166518.86162945
 1329206.00743024 902204.863209662 556091.516400137
 644939.363678039 -1486500.11297023 514169.846760824
 142808.103731938 -1604220.86787981 544133.487820250
 -135638.736668890 -851785.682027857 1464944.80612998
 1206539.96078964 1046090.29074536 583057.824427405
 431279.677862640 1636562.72612646 -160188.273341834
 1257006.53758823 632237.081025833 954049.704070173
 697013.286560419 -893219.544704099 1267411.26841955
 -785255.810546920 1159629.66953441 963655.717327417
 -414048.527824054 -1506815.72692280 -669380.446162611
 -1582170.09489423 -237166.791758131 574882.339013411
 -1496459.92331219 457405.676193553 664370.186948800
 432669.319915893 1488304.76835255 -698388.270307121
 -1322275.61255948 235550.137502561 -1042162.81700748
 126052.238518037 1483937.03305685 -819781.504479710
 -761771.785203343 430289.866811323 -1457585.11853943
 625774.776398889 1241275.81556881 978590.966086906
 889534.529459022 -352585.971520743 -1405137.52123658
 163689.372924644 1420416.31603869 919577.771764095
 -551756.865382832 1606112.86863525 -77238.6865966021
 -1198739.78451396 86719.7972320782 1202290.56629063
 720074.469130468 698166.092162317 1372609.50989758
 -476199.343106124 584589.224606873 -1523643.53577168
 790108.915957899 -796625.477327381 1277151.42007389
 -258321.666694373 1669090.39640971 193409.320171261
 -1309366.12204145 100253.705164298 -1079587.67733379
 1282962.96498243 796149.994525293 781121.768164780
 -1117860.69523249 -171367.081840519 1269259.93764705
 -174953.534682664 101023.375619839 -1687953.06163424
 -1363078.37866652 -976500.602060753 -280114.097800961
 -176388.178475075 -1054959.82238988 1321342.87133861
 -1407565.21190333 -950492.335036239 -72969.1392089753
 -1602670.29240648 -185257.470053774 -535842.890805683
 -1317075.77696661 -115078.489019114 -1068675.97478977
 1064371.68436855 -605537.408318246 -1179168.08159044
 -1548901.16476062 -270023.622235279 646523.336963285
 1525433.75140123 750367.664721801 487.673995527529
 -1188484.46031468 328477.107235135 1170302.30180623
 -56125.7854852545 846233.722765949 1473342.58835389
 1648937.88973169 333545.047988845 -244441.274684381
 804336.307144847 -1218217.75408691 -871199.522862613
 956633.931217563 -392916.487530556 -1349247.25512779
 26947.9139749775 1284525.77949164 -1113223.84620246
 1657861.64032462 -60361.3844532772 -371283.294543470
 651111.243256111 1562621.48341397 -155782.696338820
 -434326.262786929 941713.047455916 -1347047.59890096
 793213.688288273 -420760.096405154 -1443527.96508597
 -865677.363100241 869260.311299179 -1176855.64714449
 -1292306.98696820 200008.258593056 -1086250.13138216
 -175358.966953915 -1620384.87389887 -483324.004316573
 280406.917831634 678932.115530548 1533108.97947060
 269308.479829117 1622168.66331291 -431325.596803331
 230344.169727335 -178820.180010573 -1674802.94563080
 661530.269538828 914432.695704642 1271294.83107194
 -1389646.28164469 -804913.235240413 -557671.853015641
 134743.022144179 -1344258.57516493 1031897.86368565
 113586.693022943 1695520.84265814 48032.6480629033
 -1678655.83649361 -260385.831150115 -65679.5367081615
 -506174.348855819 -1524357.76617325 556885.023382469
 -1025278.65572247 -521783.746519457 -1251617.11397217
 -985245.237262625 -298556.864276460 1352832.44389123
 -317096.165536346 -1667383.63189868 -96342.3368956033
 -846812.615961937 -1430621.26325878 355290.296179815
 -1060360.98645180 1306324.95039720 243207.118277252
 -1089319.23261742 1153000.91849761 611532.902952462
 -13218.1510211437 -1601802.90274336 569256.305407785
 -8275.74119046048 -1681071.20298999 -252846.045224211
 1243981.52725962 940677.469925695 -676487.884156849
 -686518.951647282 -824276.951355483 -1318809.78025386
 -1436016.77068108 -359124.513212473 -835993.671227597
 1571192.51350892 -615140.057554899 207260.211050931
 -969450.068746763 1276407.87248274 566524.057098174
 795108.291497379 683823.577067230 1337979.11801309
 1606778.94659919 554777.918071741 -21974.4939781390
 729121.661281905 470125.544284440 -1461972.49483729
 33307.4436662990 1681323.68561927 -249080.867133631
 1624714.33738492 -24590.2079254384 499698.552699575
 -1335513.32197545 823775.487199722 -654062.774903869
 -394963.688925151 1599380.62382750 419506.024457099
 -207945.251398860 -1524422.40983295 -723114.851748843
 195682.837962244 1425227.63558371 905778.346890396
 1496832.63735119 -763344.729617504 -258450.922856669
 61362.0238207064 802707.354703020 -1497296.09788388
 903471.518541506 -1090716.34356932 940253.728019772
 140419.656914064 885987.256546406 -1444059.86759189
 -1377533.81232534 990740.450310979 -104086.291210729
 -1115779.28612694 -1034789.60319601 757790.909002935
 511868.167147594 287699.998667374 -1595374.46708532
 743263.821207898 894891.826446487 -1239648.14001502
 877361.000795233 1389526.63455569 -435262.456621189
 1151575.03243552 1159322.87974609 468876.748376765
 327504.313452686 -1664797.01242026 105791.455734620
 -1208088.55851377 171566.334752300 -1183675.22047552
 730976.304784381 556979.271822880 -1430191.50207356
 579622.992131265 1205725.09203928 1048934.78797286
 183193.192925005 -827319.728702942 -1473764.67611516
 631172.976158417 -1578402.60629632 -16306.0296918987
 -703856.440389065 -275660.533785840 -1522694.11945924
 -516925.853800308 -310189.864746877 1589518.76663383
 -237208.326424777 -1683183.19377657 -25030.9021585745
 -158841.997873630 -759634.227552524 -1512522.74695034
 470691.802233831 -1531431.38792552 -568477.907562283
 -608023.738650807 1587534.40530099 -6453.31098984038
 391514.497705509 -380384.866657176 1609976.32010679
 30514.7754244349 -1582437.92369269 -620450.695978294
 -1337993.85278791 -874419.407390506 578932.768014205
 358717.738169491 1475179.43147042 -764962.240433594
 103542.924279121 1514048.48903225 -766117.507756411
 1205326.79863905 349026.186131310 1146894.95154403
 -1585264.48133830 385789.084555898 477601.618972072
 1025091.94713521 1278298.84009657 -452922.261901871
 -941235.858588117 1293318.20192885 575676.199844500
 1515116.80901851 -17842.4501748835 -770780.579673179
 -382781.849563353 -1493412.99272041 -716376.778531198
 584079.415827050 514394.226029228 -1511373.48667857
 -1220510.01174021 968191.228412556 680412.416455563
 -838713.347433027 395060.705152440 -1424951.56411793
 -1604333.08157126 -546657.622578293 131456.483495866
 -1606569.05242360 -527163.043540067 176167.548998983
 489643.166537106 1033143.81354787 -1258119.00470157
 227709.907024786 -1677022.71984093 160446.238285938
 396885.017663310 -891199.887726198 -1392208.69228403
 -356741.252369700 -86344.4679478783 1659903.70555418
 -998677.753833273 -1374371.86025736 61194.2295585130
 291937.894244188 756622.939431949 1494086.34068772
 647362.012659658 -79974.3040822607 -1569881.05767660
 564082.390515129 190078.888415207 -1592382.20063199
 492900.697583367 1612667.80205175 215293.898072879
 1090880.55380212 488163.588990121 -1208997.90228133
 1141939.14104349 -318629.224585546 1218380.24253222
 565792.803161579 1175755.10520892 1089714.84181217
 1637599.22670571 213557.814454029 403313.566072937
 1125411.09598892 469797.951928196 -1184373.14617864
 950703.324216473 56238.1069538820 -1408190.49302642
 333841.096269006 -47881.2264809662 1666210.52409129
 996794.616221965 -1048378.71978901 892917.999014731
 -33049.1001105148 482714.278075522 -1629691.59129079
 -40202.4648639918 -1685253.74646135 -219780.735863801
 1271351.12315419 -1022456.98030541 477753.121475245
 -890043.773884698 241308.423705530 -1428142.96385825
 -223120.317929680 1682554.41585819 96062.2787730849
 1683388.53849075 -190601.737477990 -140975.196926043
 -862133.565445240 -403463.866017685 1408524.98172760
 -1240873.78238109 -1001008.62144888 -590096.598858403
 650331.991802310 1508850.38101417 -436392.974452898
 -375581.769890883 1184101.53222637 -1160535.17633236
 -937408.258367405 1388569.87736756 288339.128132163
 560405.383046968 -1236464.29286629 1023279.95148867
 -687272.211888710 -46956.3517778983 1554172.45111130
 -334191.408931692 -1581895.08819229 525284.715320531
 211066.762161789 -679717.129075875 -1543837.89510149
 -545118.760961287 -429701.834445836 1551838.22285763
 -1453046.22503393 874444.252242496 118338.149532159
 -192450.810508237 -707869.705650141 1533585.06948832
 1115189.27954485 652278.695776558 1104936.81892869
 -1429723.34556762 629837.158334277 -670221.089731094
 1686025.92726537 57107.3919112594 -209893.588225204
 1197115.90236519 -220444.953509719 -1186725.55326684
 604014.957678071 -1035544.43166515 -1205327.20078345
 -1359951.83811799 -780439.910137415 656844.383902469
 -990953.962672094 -956369.159585220 -996678.621451636
 -321661.551116530 118085.583442309 -1665109.49835631
 -559161.099918253 1539748.17916905 454438.564696939
 -373279.672419911 -1596519.54192842 -449207.789779683
 951350.927583337 1310078.48803137 518291.199793859
 -225436.280629839 1274544.40456449 -1102141.11808294
 691743.178707808 -1038764.65833658 -1154322.03448695
 -54383.6740467212 1064313.47305604 1324492.07134983
 700250.870452007 -1546160.08926708 -95066.8017177041
 -1535952.66866282 -173638.302978330 -707600.974678774
 -5947.88798375953 1693158.31636331 -152248.278671018
 1079545.46211422 -47269.9762727014 -1312382.24026835
 -428122.819733563 1630523.00426531 -219329.851559250
 -1229931.79008140 -877090.927065147 -779730.272214158
 1211672.22619221 958460.738031974 -709368.331634291
 793679.653630447 -1501425.35001236 -76121.7823839584
 74036.7393669264 1595036.14100454 -583419.463262295
 166330.968237747 648119.340882548 1562778.08052809
 262142.469761392 1634455.08854633 387088.993737098
 -325922.018229216 -1638393.75550393 315342.258441698
 656038.819659855 1553724.15878230 213434.546209228
 514429.235572276 1417573.69672283 -784759.438266337
 812173.955305876 235251.042936041 -1474798.43135268
 52004.1297993775 -1630399.81030378 -478635.591076555
 -243261.204506756 -1640434.41410249 373896.936882528
 1194921.75967402 -1200571.17949776 144190.260478688
 1683220.66204009 -110918.408284054 -210867.990897257
 397203.316155932 1484123.58105237 727740.834225349
 327508.366605356 1331191.18737872 -1005319.99505069
 155627.193439005 -1598124.21689686 -558371.886855077
 1189349.59352605 -895000.669889804 -821231.602701830
 -1007283.46589818 1363054.49326369 132145.630732966
 -170932.026124894 1633029.28655674 -440451.577012513
 280290.363512993 -1488766.70643032 -771369.565089502
 483864.904498950 1589794.46877674 -358368.945698568
 -1448102.23806926 735595.009857364 -501896.293642154
 341140.720327148 -823646.952240335 1447490.48597906
 -1231980.56067714 -470972.086613937 -1072571.29914246
 326105.275809707 1636119.37778746 326754.848039709
 -521374.775197679 -1228323.58774692 1053275.60855272
 1226526.65079420 1167867.31919231 -147371.298610464
 1176197.08535310 1211239.49313479 198643.667599708
 -156568.962471403 1453624.41752075 867445.798178827
 184952.783869967 213757.565690142 -1676335.33961704
 -1633556.87746721 98332.6591580872 -460241.910545382
 1603940.16690317 551033.698339418 117208.379772949
 296490.027441004 -1671956.15719446 81585.9794791889
 -436610.322506520 1506184.98216878 656336.975775391
 1431530.07694817 553014.412993431 -731366.322586909
 983359.966316191 1172171.44621904 740957.000989520
 -845793.442055432 1125973.64468715 -952269.292188905
 -46428.9518681663 1412964.92662494 -944126.299049125
 815772.449043948 -1259706.71243472 -798532.597974404
 -361032.093494979 467138.573970412 1594188.62753926
 -919097.915630173 1092995.86917887 922290.112406171
 1608848.12572727 322761.888530842 444333.739047408
 571845.738160974 1330250.90072770 890744.066980108
 777195.353290967 -117521.347304658 1507367.27964708
 1304679.11330757 -630884.927386983 888705.024006775
 -1229503.08924447 -1173435.02303497 -37045.9208714889
 926211.122056314 1405816.44704392 236247.909197054
 656765.195813821 -1557207.33564778 183751.983315530
 -631442.627817526 1001975.65280678 1219559.34622196
 -1355811.41688323 668778.100469794 777503.218116232
 -988481.581498598 -1362968.13974948 234993.644735069
 54259.3973734706 -1644580.04217215 -427097.650058766
 493778.758688588 1055366.02681404 -1237895.42648590
 -289175.950115400 1531412.43646630 -679082.630694670
 1314719.63339515 -1062491.64607459 -180620.562470098
 -167216.442357412 1198025.09433917 -1194476.67818964
 -1243995.93924341 -1030590.28588442 529488.211187537
 -1516006.85150069 -703334.034777944 311519.600869584
 1400771.30212053 -930980.092360712 -247216.153969764
 719861.513878312 361781.562836177 -1496968.10307656
 1620632.39376981 300146.910090590 416488.267094069
 1359609.67566456 -614612.681701236 -814685.694812015
 332307.214770881 1662266.03858963 -128232.335870331
 -580524.350379133 -1285664.14163692 -948714.495264985
 1060699.32249600 697231.451115811 1130833.87410860
 249083.646356959 -733828.673304811 -1513093.78934461
 1275925.39174050 204634.258516204 1104599.11956935
 943487.124670021 -401018.124017416 -1356103.42886944
 1250269.12290034 1127822.34293233 -234187.709123806
 1026273.57936492 1341392.09913917 193467.766474203
 1462799.12713583 -847940.913406881 176677.449102487
 713036.604192134 -1278326.59376577 864557.644552027
 -672859.004101221 -1536505.30092615 276427.605035643
 313618.066172472 1333917.48705181 -1006135.10340690
 995669.344750004 1040994.59990249 -902758.438841172
 -1500240.42791016 -132798.181272956 788443.594377266
 -667166.358629157 249943.560602656 -1543508.10377749
 -527342.538890435 1151919.17399052 -1133574.90412835
 -915671.706570270 1407928.64237833 263215.242258868
 -273802.616080368 1357127.76019070 -986527.429901129
 -1558687.09903749 -300157.067146388 -608605.177710616
 -836674.445787699 -1434099.87807563 365148.478662207
 -1236353.97085566 1103516.85300066 379050.674571303
 1626864.35346029 331273.160489975 -365472.938231026
 -872591.225406474 -186963.770720394 -1446937.83618428
 -1509435.80435485 -235190.649520139 -745847.779985922
 -154309.449527080 376133.433782080 -1650670.23774525
 -1164545.78611224 -731822.880017147 -999133.817029343
 283688.297283500 793936.955315658 1476206.30704807
 -115953.268958687 1457891.12463784 866665.049554915
 -1003330.92660199 1372295.95100490 11440.0428127097
 1040997.66772663 -355206.018237042 1296206.98208114
 -1256629.78930138 1090216.61374479 -349727.476408711
 -562881.931734475 -874929.719397496 -1344493.18222217
 -874353.633631062 -207356.424574861 -1443090.09993960
 57605.1682843665 -1581328.24243743 621355.481392643
 -1186645.36554636 1084703.64793877 552531.241266669
 1270629.03584346 452610.931959901 1034719.86428304
 455466.139260395 1134986.94761530 -1180828.19441701
 -357203.915609828 862477.305992397 -1420752.70871503
 387778.843058590 910735.529779637 1382095.64201366
 367280.578856262 899785.061281514 1394808.88292613
 -1295995.21055469 196411.212938368 -1082505.91206302
 -66818.9795827331 -1442141.63297831 -897642.876871512
 -1333249.60227740 -998785.385384396 338929.567859909
 1568633.57074914 97723.1164109816 -647949.776786549
 888331.092718260 -546396.999170539 1342504.44655033
 1630332.35688914 266164.956726587 -401463.101531198
 1150369.95726860 742874.614136569 1007366.00552395
 290434.931056689 1612104.58590001 454715.685832659
 1159811.02232324 1228297.16094549 190064.402008305
 408678.705182829 -1482116.91801885 -725473.057564775
 -569854.022259364 435612.674300633 1541268.30607246
 1325706.93111451 -1033600.17281269 253321.565518072
 -1231855.52873973 1157944.69256222 -178033.831841960
 -1645555.31139695 363774.202014373 223195.087495448
 -776669.595108903 -791805.047567895 -1288343.55149524
 223271.488058105 1679962.03281199 -133706.435636178
 1634946.42595061 441032.001158924 -149803.064805333
 -397836.900882452 951010.758350304 1351778.21324292
 1123666.62658142 -31123.4886444746 -1275305.70482599
 -444047.361429876 -546186.774247314 -1547417.83253408
 326698.911110035 -1668047.02355163 29781.6839694192
 351368.519158258 1079680.96760177 -1265238.78060350
 -222230.970519551 72795.0069268195 1683839.14989184
 1218352.10384829 -1066235.92441213 518419.814958344
 -300958.942801481 -1527563.04496355 682623.511468433
 687346.448106866 1451092.34219564 558467.433872419
 -1345401.76377739 -788094.686710490 -677348.402820426
 178036.807098824 -1317083.66957705 1059996.93520854
 -417395.619200632 1501812.81234106 678482.994451856
 413174.352336095 -1312424.37524478 998413.348185507
 774714.779513809 931918.023699587 1192202.08333433
 535538.245916169 1595315.79072090 241176.937200865
 972914.828729272 739373.362681555 1181847.60717940
 49123.8389824826 -1475937.21688261 842137.862979956
 -1221438.18364650 1143153.19562926 -302141.580807643
 1561714.99628404 -546157.758651615 390842.644866412
 423441.313440425 -1244566.72700702 1077845.59010040
 -1162073.16192512 971226.500077103 772207.907160586
 998811.501762169 -1371351.18409465 -108496.607457621
 -654827.580062186 1559411.54239022 -171570.632248198
 1098929.55443709 -760883.322092131 -1050433.43651406
 -296157.499810835 -378999.382045146 -1630536.78391970
 1311864.24675358 101989.210458781 1076387.66206216
 645902.311301154 1427478.81165811 659632.053892918
 1480910.40478796 590437.441196517 590159.301395876
 -1487091.52749356 729974.194333471 -381702.062430971
 -733817.608706718 1497496.46503759 -330175.793104026
 35727.6210906498 -1277797.82763850 -1120694.53856684
 -102473.488498076 -1640129.60215160 -435286.195854011
 -1016179.12918476 1280341.61304611 467017.485017200
 958119.323392236 -427189.009472863 1337728.26550387
 -71742.9202081596 1534435.71486781 728258.189338186
 -663943.888060365 -1509252.38423574 413927.232960125
 573058.709130193 -608980.086483919 -1480117.21500565
 895930.973612548 693754.701762866 1267285.32868632
 -164650.522500321 1277088.33215098 1109925.94227012
 -844965.358884731 -500930.605931451 -1387480.47565576
 673441.527911706 674033.073253253 -1407890.59398972
 1250659.69745358 -1151455.71537003 -238.132358615487
 1404543.87217335 886397.968296133 362705.325217030
 -821186.006771086 1007016.49208395 -1096162.08972683
 1184133.62203253 -1189075.31708687 271896.037975700
 -680413.347007243 1380485.32165977 -722009.663298428
 -1648796.03897464 -309636.051507401 274949.336184753
 1377362.55809547 990216.726562305 -111100.035971839
 983904.275828005 892979.577871925 -1060433.80251247
 -315858.248135045 1341703.91075647 -995019.689727730
 -1003861.60578411 877613.340752849 1054540.99046228
 -1691982.88479750 -137471.372670810 -91079.8509459080
 860403.277499920 1446399.72817927 -240070.877847187
 -435741.242175168 999901.153880144 -1303965.97054402
 -313027.272015531 -1465151.08242260 -803334.446323824
 664554.773295179 1266656.28971061 -918666.858565790
 727795.936760549 1113711.32878483 -1058281.69717290
 547661.853078861 1380371.51160969 -827430.350312698
 69417.5622945561 -592510.793382184 1591889.49420828
 -1451951.64041960 -472991.924715797 747070.995981300
 -1556018.25718029 -509319.309575724 457603.566654489
 490303.816085928 1619794.76009334 160832.531242051
 1569430.83553547 540864.311802211 -366541.469262547
 -1139990.15630567 350599.557756907 1211405.13191369
 -144213.777440180 1546549.19478806 -690932.684490192
 428632.971602987 1459035.93262772 -759926.261525388
 -637715.931621804 -1547502.36936062 -297581.597850079
 -1532422.78956818 -649612.067103230 345954.558122826
 -1405258.62156701 -461505.641678094 -838009.993502991
 77682.6358534514 -1298306.22789899 1094699.20374757
 1023891.64845241 -49513.7941857394 -1356168.97045123
 1478830.32738879 469349.788237759 694817.702045899
 -103298.147924886 1120972.17088757 1273872.39735026
 -1073240.32280427 155002.930424424 1309247.60876880
 -502721.285177570 76327.9556343120 -1622173.03411754
 -1179030.33826105 -890065.971420152 -841231.257134411
 1482261.04540229 647992.437547849 -522501.669053500
 1487325.66143750 721567.737029769 -396487.550507236
 -402450.306331323 1276694.72930656 1047895.18516628
 -956351.183474534 -657839.914339511 -1242030.21741367
 1138102.43682811 1190316.04412011 421747.031283166
 576235.721322144 1519671.73647426 -498548.098816621
 -746642.706662945 1466634.08243761 426038.891205279
 1363238.30841018 -997440.226363633 191557.587462897
 -358521.017523094 -1661764.28182069 1466.85348826001
 740880.089320677 382708.929987026 -1481428.55654816
 -1032177.91819778 477311.845786912 1263638.45583157
 -393086.985921456 1599222.07349918 -421866.544220041
 92908.9194385925 396331.893788282 1650542.02086919
 -938497.662331116 -267169.165840175 1392064.21354164
 780564.392968238 -1137937.02238398 -992883.961758882
 -620420.184639683 -56301.5610191466 1581742.37115861
 -999521.393185641 -593339.132383792 -1240526.36350312
 1218226.76749056 622710.650657747 -1009036.66361877
 -1152695.97254503 400329.522757102 1183650.39943707
 1133333.48941532 67980.1995249393 1265280.16432814
 -192933.232318652 -1688131.79924113 54660.7378103603
 -1129691.02285904 -922412.594298619 -873471.922130861
 368263.754134993 463520.356574814 1593590.50148749
 -1059889.94007973 1157765.20935866 652849.932922173
 -567570.503166473 744960.352876867 1418766.29385425
 -1578979.62865419 4505.69161052176 -629923.035805314
 -293633.422516137 1648364.65470305 -294403.427811468
 1146187.22944624 1208891.73064466 338874.045381600
 1524249.79396657 -751131.976156057 -49631.8445030180
 -14224.6085424155 -306646.722588058 1672054.25989644
 -1655825.62721013 279230.160752770 265088.682519955
 -82151.5311350388 -65541.5763755455 -1696748.48687081
 103830.932505633 -1681164.20160267 -230013.183762716
 -1333045.04424295 912086.048225836 -530179.168443165
 -780803.435773004 356088.066984553 -1467496.94488141
 -654523.763021735 -990171.534616903 -1217028.74891034
 1096497.13392357 -74544.6059822882 1296972.29616378
 465275.893582570 785476.168749995 -1434066.08326701
 1454446.91006057 850538.813539678 226203.254790438
 1229222.68701979 -1004359.51528264 -608501.068016377
 -1678579.29569729 -255158.811524202 85238.0722326140
 -1406027.39832016 -194882.362433906 935471.977124495
 273241.701123522 944808.318141021 1386606.00559015
 170634.577607100 -1415125.52485928 -926446.754981960
 -833605.044963522 1435749.74361975 365684.703955715
 1097326.41397243 -991831.173885068 837941.324740683
 1108909.52578747 -1206755.96583554 451729.678611160
 -1126001.26834887 -723282.566319621 1048324.12589563
 -1105174.00276850 989017.961360362 -830923.519772570
 -398080.441223813 -1555268.57626267 559170.473116154
 191963.412249660 1616737.35265543 489193.602662772
 -1118106.15082540 870084.660242648 939569.752331805
 -835009.469429073 135033.487791804 -1474627.12003359
 -1131577.21878687 1268653.77251446 7113.60720039950
 853732.170521508 -756132.556041789 -1260716.04206116
 440537.313050660 1401591.13132008 -855259.712844590
 1078838.86898460 -333811.424223675 1270699.26726421