# OOMMF OVF 2.0
#
# Segment count: 1
#
# Begin: Segment
# Begin: Header
#
# Title: Oxs_TimeDriver::Magnetization
# Desc: Oxs vector field output
# Desc:  MIF source file: /home/martin/PhD/repos/ubermag/oommfc/docs/ipynb/thetaevolve/drive-1/thetaevolve.mif
# Desc:  Iteration: 2192, State id: 4393
# Desc:  Stage: 42, Stage iteration: 50
# Desc:  Stage simulation time: 1e-11 s
# Desc:  Total simulation time: 4.3e-10 s
# meshunit: m
# meshtype: rectangular
# xbase: 5.0000000000000003e-10
# ybase: 5.0000000000000003e-10
# zbase: 5.0000000000000003e-10
# xnodes: 100
# ynodes: 100
# znodes: 1
# xstepsize: 1.0000000000000001e-09
# ystepsize: 1.0000000000000001e-09
# zstepsize: 1.0000000000000001e-09
# xmin: 0
# ymin: 0
# zmin: 0
# xmax: 1.0000000000000001e-07
# ymax: 1.0000000000000001e-07
# zmax: 1.0000000000000001e-09
# valuedim: 3
# valuelabels: Magnetization_x Magnetization_y Magnetization_z
# valueunits: A/m A/m A/m
#
# End: Header
#
# Begin: Data Text
 82687.4013736732 -1617703.66093444 515943.464977875
 -1531561.91014165 -715545.501906530 179757.475796130
 -1118881.55991445 925249.492314724 -884317.494938747
 -615729.899858009 1572038.94000827 198922.752641657
 1186575.68499358 -490227.379652559 -1114322.78089475
 -407454.178754283 -321271.881938978 -1618877.84285630
 1565137.93977123 384100.933082397 -541118.935811617
 -717553.753503457 -1227054.99693375 -932444.446244936
 920094.191426213 224310.928791469 -1411775.93340036
 233517.303596550 -1674284.60785501 -179557.012730750
 907832.556588180 1303139.41989767 -606356.084745044
 448065.338087326 1135564.50398569 1183102.15539168
 -808660.179583016 -810304.471176338 -1256771.80822471
 908799.625844524 -217149.967262021 -1420186.30178683
 -1039091.57169465 -896596.861494094 -1003196.27869728
 -960780.836328388 1402442.35927504 7457.44293777510
 39388.0126310717 847886.369722276 -1472934.92337583
 1324636.30470467 -867496.163362291 -618699.496371268
 -477844.529620951 911019.938373915 1353405.80662140
 -297023.515984844 1285142.06618257 -1072467.66882736
 1225574.81033940 -224188.661039094 1156592.33462921
 639409.495053452 -595142.971979905 1458410.20996783
 1145186.02803028 -258053.546933097 -1229616.74033801
 426684.026462204 345674.415344061 1608866.04170097
 -1082529.74829971 1157674.78975441 614750.701677723
 -1441953.89625443 -347501.358509572 -830669.469109506
 106908.141334872 -1626856.01280970 -481570.517059821
 1297567.60950568 1037232.83203618 -361201.260944533
 639177.375361164 951948.470612014 1255088.20093484
 675025.434819243 -1103174.83971191 1103334.00898082
 1637092.68964946 455579.063463781 48736.4589376032
 -1218744.12285590 -18856.6718663789 1185034.67836613
 -1448941.68209671 -703459.020771438 543795.373259137
 -1205309.89849628 -1187630.10627865 163593.334972530
 721805.921219749 1462235.67150259 480482.104846233
 346246.510272134 -1451570.39158930 -814282.968252234
 889038.092218465 -527925.383132005 -1349409.52287639
 519172.534343450 393878.600414987 1570133.60186913
 1690375.23949514 136865.762845478 117895.346229137
 402179.776432869 1473135.89196030 -747075.679731813
 -209016.595596108 -230691.208615154 -1671255.10591085
 -325466.488881992 1655812.48207229 -205807.164181509
 1675786.34291444 149132.632184385 -243925.379817660
 -686821.515715485 610330.523575464 -1430305.16238402
 -295466.804430730 561672.138014848 -1577093.45850438
 -1690904.88385750 -61537.5699138137 164480.397725581
 1427893.40783608 60791.5203523360 920556.791790445
 -851548.016466111 -1337817.29251835 -612462.951933826
 -912234.354289824 631927.222546995 -1287826.25701508
 1400452.34311277 -42478.6892787250 -962771.414005995
 561748.727529923 1298053.52639305 943130.642984889
 1290376.73807130 3974.47528735573 1106757.46096002
 -422157.314616853 1137264.17674098 -1190971.61763711
 1082597.84650115 -456649.270397140 1228598.12249442
 683865.276871798 -1310970.85190086 -838858.574823783
 -1285743.39926002 1046160.11873496 377376.360186684
 1674058.95474801 30752.3566303408 294246.339976674
 -82832.4650361423 307864.051781012 1669837.86888339
 -1252511.92813865 -588461.156447137 -987384.087993772
 -773775.853921731 1297248.89524693 780010.404846185
 1115793.57518822 -800019.992237053 -1002483.27147624
 958926.793821662 1286133.35783569 562423.674780145
 -1520282.97057703 721353.548611310 241637.636305588
 486439.246551520 -180398.173727069 1618898.81040488
 -1657495.32341431 -207796.851831409 -315483.313708751
 921846.525505808 -1127028.14619809 877500.165863321
 -1073847.11280883 -979247.491001617 -882001.547435815
 -616897.929853105 1199800.94566758 -1034366.77968607
 64214.9777618888 1289578.89504458 1105831.23038131
 -420910.726723277 424617.023938962 1591393.89941978
 1034007.23531590 -733842.973869526 1132388.41702691
 -247393.965059535 -510723.539978449 1602484.84915272
 988002.821911435 480900.782519045 1297144.88830956
 1289151.31920371 -444827.370725762 1014996.29873638
 1361280.27322286 137944.606693502 1008904.01090414
 -673342.424706957 1556692.35579877 -115407.488870686
 -836591.375849767 -770082.196054515 -1263759.58203040
 74794.9323120519 119589.009239173 -1694138.18414249
 167484.182155925 956560.569313031 1395328.25025622
 1516808.36206856 -764488.859080016 69636.0330678187
 -320538.401121429 -119088.086416348 -1665254.68354850
 836253.985435194 -1320379.36204225 668788.166863510
 1365571.03970058 864172.573462912 -527656.610690676
 -1179365.61485921 -1021207.97137731 -675448.758739852
 -293735.509666709 422749.244046996 1620185.95445663
 -475998.380426609 -1104222.14390321 1201715.02393248
 317354.686785101 1303646.82188463 1043930.53723206
 -1080427.49729840 -445739.576007513 1234500.97345533
 1210443.41876593 -463539.745849974 -1099980.74255124
 397201.600140698 -703605.331454863 1495717.36180134
 1581627.00646639 578146.325562164 -232815.030990579
 405831.640552314 1533148.90192956 -612172.462659670
 475742.982150097 524006.928010309 -1545666.63751668
 -9629.34036453696 -905664.129578369 -1438638.16166512
 -712541.394106516 -1539425.88515497 111591.692341201
 -215797.522279696 -1370544.04041218 982364.729959608
 505037.795167482 1293746.37477375 -980386.221451599
 1686929.29429334 133635.532760698 162514.923741615
 -1159682.63603049 -1082582.38873110 -610861.322477237
 -1249429.43884420 -662445.851247671 943446.644762818
 -528405.671766086 -1574475.13383238 -363064.042544766
 -987075.032408730 -885339.465504097 -1063887.64031557
 -893071.040110771 513128.425500197 -1352450.86278916
 1141960.08046127 201638.305649781 -1243088.56013060
 -1605586.90582028 -312254.943613295 -463235.942093771
 -1653000.51334800 375693.944954509 128231.675477485
 851454.901310092 1328314.21665580 632934.351149551
 -1159191.64353497 1035891.33089649 687898.164070951
 -1020382.08488284 -787289.549343590 -1108600.72449215
 171070.031048111 -971452.330582860 -1384563.25745064
 -450874.859882467 -1574869.16192304 -454421.592301437
 89679.3915899063 1193903.65964034 1206876.81982109
 -1664157.21876270 -119683.252661651 325970.351830207
 -538492.495583662 -109956.186924864 -1608706.14754747
 -1275246.69501978 -705108.342150645 -875538.744243051
 282825.037470935 -770760.125754844 1488602.97820673
 468215.795146863 661497.941660102 1494387.64795298
 -1117215.19359099 1011448.22759777 -786640.129982425
 323188.927985462 -851845.150547438 -1435238.22284540
 -1652460.84985278 -105832.010129099 384932.104839121
 -1056024.86734343 -960988.499333366 -922666.019587423
 967264.103695052 1059852.20789515 911654.238800430
 194301.444128181 510940.090299829 1609716.48837120
 -36805.5950060320 -1660206.11461988 363814.520264146
 -1664306.81001396 -170253.440025481 -301822.146802778
 550947.064519492 256970.822675168 1587584.11694971
 -1483303.95798632 467076.807913412 686766.789915999
 -456372.552962802 -1345046.35993926 934116.899813054
 -927937.803729191 -1072534.79946220 937336.938540690
 30310.4780877107 1476949.16907003 841250.513759991
 -1532406.14337844 512867.294326639 -527919.075376233
 1113003.63812768 1250506.98310670 295728.231178431
 103967.264236533 1598411.72676462 -569447.767322452
 -46498.5544196080 1179297.53305782 -1223558.42237330
 1454761.05973114 412068.843422711 -777090.424191545
 148966.290359959 1405745.65231720 -944292.436339343
 -543504.017664842 -1129348.82762649 -1148553.26751564
 -1630480.95403297 44879.2547649916 479080.067449551
 1646460.34202873 -70539.4165258983 417363.789568304
 -683147.761184178 1236784.91922977 945342.371818200
 -414071.480449402 -1413520.88254742 -848824.789742143
 1016737.27941538 638841.196472614 -1203381.58135167
 134895.997027244 1036350.05836705 -1340813.79263067
 1273142.20173168 -679020.609221520 898910.421800883
 -824704.973007939 945352.166478619 1147244.95589658
 -211985.546661796 -996236.171673127 -1361093.53765881
 742867.899771113 -1480035.12097665 -384243.834257991
 654837.595584538 1367187.66209680 769406.017665148
 -692463.717380981 -1365123.91653517 -739547.627008970
 -1497674.72468801 569990.184558767 -567522.341883864
 -1189707.23993630 688533.702211586 -1000258.97854604
 -852743.444325662 -264842.969736696 -1446612.18698746
 -300944.531624082 -1046659.21540693 1305349.33090315
 1164916.03549040 -40572.4897362954 -1237466.97060323
 -1526336.97001174 -33555.4284670053 747776.361752472
 553889.878846240 162997.704228984 1598948.95182047
 -289114.358350594 -1340961.37953761 -1004109.29005966
 -482395.706076837 1538540.35495450 538690.967935332
 362876.404164234 1595522.20055206 -461117.797147696
 -71719.3544466373 1547247.30586533 -700629.794320969
 534293.816866613 68394.0536779391 -1612405.77110094
 -1677764.86886860 237692.280265254 136409.034497869
 -1586451.84300480 -133346.605728300 -596145.311620754
 -110470.407387599 1605183.90226079 -548799.534451737
 -1398815.23219414 -690582.945849321 -675582.075756693
 680102.250377209 559821.083060711 -1453981.18419483
 711113.809638772 -400453.066359896 1491292.89255464
 -127984.363224697 1593729.19580371 577622.067802851
 1504474.75027512 670645.098217831 420465.073485321
 155398.598472696 1626396.35566384 -469772.466068536
 16194.0456686510 1350727.57325667 1032120.52383868
 -630415.365032473 -1247944.74686982 -967062.757162637
 -1340549.70420778 -459570.876600642 939000.053210307
 -163947.590295187 1258879.24356654 -1130638.86265852
 795437.855658709 -1044978.82929171 -1079489.63131529
 494457.941379973 -724162.394169874 -1456399.72915283
 270080.325680985 -239600.112491938 -1661218.95118431
 -675003.229953239 1519599.39676379 353819.605035965
 -1586165.26464442 -607663.281834490 69462.8616285543
 -536303.625905022 -1352978.58830278 -878537.056950557
 -1140193.72290337 1089830.40594444 -634214.443647192
 -1603681.78981899 -551543.824137808 -118339.034381745
 45814.7200817730 -1411748.78628607 945973.771223930
 1308819.00138777 -136762.158004855 1076238.32571794
 1127153.81691116 -619608.205995649 1111579.93148736
 -471483.674644667 -507538.478618228 -1552452.20128204
 435435.245482400 973902.631278829 -1323597.29970254
 909244.078601614 -506750.173542361 1344053.37213322
 -560628.171529504 48106.7130907037 -1604176.36107851
 -566976.263538993 -1423106.18039840 737093.424129700
 -33385.5494683768 748656.219034300 -1525909.32587358
 -1607117.14845308 -460713.234741948 -308087.303343769
 -155762.762343739 1245522.24709368 -1146478.21342656
 1273046.92788048 -90029.4268404064 -1123052.19011267
 1265960.66914301 821879.985882835 782212.805436095
 1252664.92523436 1142047.85497137 128675.102653533
 77857.1337643448 -1250519.16200373 1148973.49498737
 -752058.013491507 1498521.68095964 -280787.314594330
 1091953.18153685 -638763.630061327 -1135614.05162248
 -467988.574618309 671308.471211890 -1490077.72633037
 48049.0691670602 -1682068.96280636 241526.999144451
 -769465.874270881 -1213477.97221981 -908511.683617693
 -618894.034709190 335756.954010058 -1547332.36301554
 -1262349.99633615 1129541.70793860 -143554.925994421
 -537083.839059895 -1531371.18632802 -506402.250691085
 994519.999586784 827559.759385507 1102757.82249219
 819570.015938951 33828.1356508783 -1489013.31297346
 1384146.95101224 548972.637573221 -820223.299595563
 -1400949.83627930 -939426.852465075 -211699.657762037
 146324.436536603 -1483577.89753490 -817059.227484872
 -54999.2648664847 100386.001198618 1696142.01399160
 957139.055544002 1340799.94247504 419690.770224050
 -1148492.66997292 1070335.03876457 652186.700118399
 -1161711.38252227 -1176341.39134629 -395787.309957866
 -799161.580864163 1324505.23693638 -705001.166664842
 -134383.105602885 -604162.460411352 -1583328.42529850
 732474.133108199 -1155493.77311138 -1009116.33850028
 633475.895892559 163661.512512578 -1569051.68769076
 563186.587228218 -347106.485904358 1565994.23862585
 1174998.67471704 -532769.524184961 -1107038.72945481
 1407040.82611514 601362.544164178 -740674.830220127
 459128.072541416 -843089.448084185 1402997.36119977
 959771.170688672 -280960.769114043 1374736.46424824
 1354882.83333852 876917.593961828 -534142.341819837
 -1228370.15196521 -121392.599287052 -1168918.56286026
 550352.586089867 1563768.21036929 376485.079681267
 -665828.664607978 60441.3655477568 1563016.00462602
 773065.111111602 947948.499895783 1180577.81426187
 331575.831233089 -935170.162668962 -1380403.64929820
 1549408.94103409 129691.437479583 -687395.129811168
 1284028.69060915 -1048234.13476507 -377459.296356427
 976167.046707610 1377966.37174495 -195720.656197045
 -1309662.70883701 1067798.35283281 -185984.587450819
 -552876.074840560 1202687.77439932 -1066709.97144459
 451242.954153395 -180928.763554238 1629001.09847896
 -509237.405113979 -764187.944939332 1430627.15269989
 1395097.78326930 -72214.8584133718 968755.484805849
 -45516.1657909129 -1670218.72610759 -313524.617233198
 -1324612.06843048 -1051334.60485365 -173488.952978433
 -1555919.74543050 -639333.251754928 -245696.436644796
 639582.502183065 -88277.1222160825 -1572622.45074732
 -950325.991530823 -652773.055083973 1249306.94722206
 852374.949037346 -1470869.14081002 957.531398192187
 -1450272.35379157 -532131.903087673 -709609.566976203
 637380.411968319 1575926.77781540 14177.4963755437
 -31579.4371715988 1650728.85649712 -405088.856271831
 118316.807468656 -1499650.03329478 791865.462505712
 941687.112059162 -890463.163469334 1100136.69036437
 -368777.925809034 -1545285.22657287 605059.013627283
 -1022303.83765966 609196.015183435 -1213991.38324411
 -41539.4393876961 -1203926.49057240 -1199514.68530960
 -1273015.32460626 -864081.634978561 723045.580451469
 710219.822364986 637159.724632990 -1406988.02028498
 -81922.0147944314 341086.806996430 1663414.73288684
 926183.701973830 -1414221.07136470 179339.096423906
 -795083.234181257 1371435.97037328 614008.167608681
 1652247.51037452 -254498.134845742 -308721.336841536
 -50543.4616073928 766772.924516732 1516411.76489659
 728851.314636481 1534292.94551152 -68708.9405117991
 -1322934.26244305 -17459.5712329222 -1067492.43586390
 177490.070450923 936811.364620137 -1407438.00645353
 -1626953.79968709 487024.024358548 -76347.4517017602
 -889045.305246882 -1230196.90445308 765646.146396983
 651177.119324490 -237817.636665824 -1552227.79609146
 -829951.624136342 1378264.08270727 549152.455983334
 -208094.793606480 1276913.15767797 1102809.74996721
 -420318.296734320 211714.798377243 1633557.27587937
 7660.98422428217 -1285193.61119872 -1112752.75378437
 1469109.76988763 275298.001606173 809893.508019636
 -1527572.38775782 727842.417993896 163609.335701474
 -290516.606929408 -503779.907349366 1597437.29330740
 1026225.59157638 -901764.633617764 1011771.50619591
 785199.927652332 -695335.527312198 -1337897.44676946
 1126093.37888428 322427.488103470 -1232052.84665402
 1670487.28321407 52983.2175188297 310909.979385403
 -285763.770387973 -1075547.41538179 1285121.32687899
 -743491.385351635 1293847.23760828 -814358.573136750
 -1182794.69080661 1130651.61914477 461111.304919957
 -376160.328947921 -1479302.70785418 -748442.987448667
 253458.630477285 1432148.21520095 880176.239359663
 309689.013151439 -1671365.37452360 25109.7585987278
 -221954.907010654 844058.111992046 -1458870.08428932
 -244353.995090262 -484274.599566388 -1611139.11171514
 857884.801123401 119036.138549922 -1462827.42171474
 1591977.04067046 -373159.237151633 -465146.520686274
 -1546603.13437274 578972.941442916 -403496.069157248
 -367064.683370801 -260198.115642551 1639378.07074450
 1474153.45971692 719003.037018537 447108.722754047
 -808956.683128262 1492947.01931645 -81843.0347449199
 -1363684.82160144 -843974.250332193 -563977.989029776
 903896.399915266 131778.702481043 -1433738.35541658
 1639024.13953941 -322089.169840468 -316003.855480539
 -1280009.27968878 -692831.754227831 -878385.111579308
 550407.471317740 -1409021.64410255 -775699.440484629
 -1067071.17765653 -771242.276096485 1075427.56770329
 290291.358892717 1951.52392712419 -1675030.48285892
 207862.281719705 1181992.23697184 -1204029.74364282
 854617.988748021 786558.377874881 1241351.68727606
 -1005717.50000896 93023.4263377240 -1367435.17298924
 243681.317603245 -319579.127385252 -1651813.72944737
 619307.616545980 -54597.8115598747 -1582238.02098831
 -519385.983772064 -1055745.58211313 -1227045.01372596
 977221.629701234 -942720.277330803 -1022896.06762046
 1465800.75614758 855930.216888006 -93870.1608351934
 -1518269.21290201 -238127.757992412 726741.885422486
 -901425.764554812 -327712.058164877 1403579.85092766
 -177861.854887617 -804556.082231120 -1486961.55670577
 -1610482.37447574 -286364.192969350 -462970.917540172
 -367256.300682184 88649.8615691683 -1657487.25836822
 884008.901822495 67949.6854616976 -1450486.50519205
 -661144.352456435 1493072.60222252 -472887.248408585
 -389922.119222645 1228261.96582798 -1108753.03122079
 128978.563760471 1454765.57174902 870069.917503203
 572952.715455704 890131.040701619 1330184.91805891
 -1697991.92713917 56595.6242160068 -60169.3500862944
 397592.403309436 -17924.7283830463 1652754.96821006
 -1429309.66355897 602260.637910292 -695956.902171987
 -894876.278163870 170523.868638087 1435311.13595773
 -359037.314947671 1439883.73112847 829353.391086527
 -1089833.57200190 1291397.35512255 -185891.518149830
 1109163.84011946 735367.776606156 -1057823.14632492
 304216.189969480 1343910.78559121 -995668.775312383
 190470.249229081 777336.064968973 -1499823.23167004
 967177.993367185 -445457.501288156 -1325192.19122825
 827696.174221914 -1166022.88389486 -919407.242418676
 737110.972055577 1395232.88218261 632449.697091951
 1585752.99422213 -265414.742892163 552215.950123716
 -946641.397640802 1177062.00936111 -779996.852808683
 -1661605.01716748 -319141.818222578 -164976.564352172
 -1630587.26494678 -440302.185449849 193181.668078210
 -549289.715727529 -1584465.69260486 -278835.573688463
 -913418.734276813 1384311.96315088 373291.581139331
 1200423.26340412 -562709.141658705 1064115.78814146
 -1278707.28213912 -682667.444696478 888185.142048639
 629874.580034381 -417590.962751378 1522785.54013850
 246176.166089859 1344570.82338866 1010705.98897070
 -202197.037917832 -452953.519212273 -1626022.59126080
 1186372.01519599 605353.687492166 -1056441.36354056
 506627.608450184 -73106.3907487047 1621105.77137574
 -363488.589364790 1479277.03064812 754728.767173003
 485637.939067583 1616270.79927454 -204510.380055946
 -769517.362885184 449206.709792459 -1447776.35016451
 -1420792.56420393 -681017.152059143 638407.493771860
 -1154319.98211194 -88457.6780990334 -1244877.75226422
 -1400057.95180157 763428.829579716 -589079.072590206
 -147340.030436374 1465505.68466456 -848872.195119427
 588734.771627328 -495239.656292632 -1515958.12986773
 -787810.813354171 -863125.746735068 1234653.01509585
 -394476.913966819 -1570980.07254334 516148.792519114
 949058.005080876 -1204117.23356989 734432.155349895
 -660491.128183915 -567579.561621807 -1460001.68178654
 1176084.62192565 -992324.749513882 -722576.330619964
 -910031.797665029 -1432929.85922470 -92488.6251429863
 1134751.21238982 1193958.39143287 420479.542316723
 1602766.81121378 -64799.5697052557 -562973.857863427
 -3932.33919319793 1329896.22874261 1058943.13231857
 -1729.93268745271 -370955.768833054 1659032.49663844
 -1113888.77596431 1275182.28037490 -152190.494442342
 1328390.32352319 431516.872244091 -969109.043058943
 1399265.46186414 456423.188107192 -850725.596530516
 473482.563061875 589439.791881088 1522621.09345153
 -38546.9473755520 -1578845.09047776 -629096.425933496
 -1015490.83481915 -180347.211633663 1351389.37677276
 -946463.553816299 -126558.361780323 1406481.32670182
 1530221.30000225 668410.809634083 -318825.599009470
 921588.680603257 51365.3067837010 1427597.95077009
 1265714.04787390 -1115390.45093336 209456.656569674
 -1462122.80550143 -649597.515181051 574647.691984606
 -904963.971862765 1434426.59919181 -116019.572320334
 573517.409183337 1586126.35411207 -212793.256835762
 -978809.949420883 -123650.920207778 -1384428.23318743
 1094145.24046253 -268087.060958326 -1273175.36911453
 -589820.083177833 1197737.54237688 -1052395.86138539
 -431511.058723173 -1619032.02890656 287286.434720331
 -804211.564505173 821717.030652148 -1252208.00231126
 519219.631390402 1598560.81222011 254979.026613976
 -928003.131811889 -1286024.74636474 -612332.049695934
 767800.936554493 1169212.14059732 -966139.064579151
 -354043.759172307 -566984.987776223 -1563067.82969503
 822307.426621267 -1473377.20110022 -207292.352491814
 1104379.98921306 -681648.346295247 -1098043.88410424
 -1276666.00347279 849245.491086365 734102.180521409
 459950.986272718 -1122790.40236815 -1190708.52964810
 -1534027.50651107 -39162.7607486021 731591.339094421
 401760.011719039 -634742.744787516 -1525021.48867586
 -1173827.91680417 -434237.732641489 -1150463.21683118
 -926323.421706197 1377548.13400589 366450.619995964
 -60646.3490916950 1465047.50371205 860208.016824385
 960228.091288391 -692894.968647953 -1219778.08437560
 614756.794519347 1486555.77847626 549750.853633835
 503440.260094870 1612079.61557594 194286.431744823
 1614607.58854115 531311.790007715 27388.2606991395
 -256918.080698792 -1350975.19914117 999429.392761446
 859788.688223961 -1392217.41963410 460970.788737727
 -1105047.78577585 -24178.8226618029 1291620.98763011
 1300988.99492837 588744.655670115 922392.197221527
 819748.754722063 -886395.274378049 1196793.79873556
 -514068.687106147 1046141.04215890 1237466.08230192
 445827.082707027 -909464.426585430 -1365325.11479888
 -299531.445166441 -1553555.38990797 621889.510961878
 1608641.94845864 488204.028806549 252839.688174650
 1382585.72327592 875702.634504439 460001.754035322
 -936847.013934167 -998656.032296316 1007473.97070139
 -670187.059902991 796141.679605133 1344249.87659814
 -41905.8433830194 -1699366.26065163 19955.2611924826
 -984068.797806825 788332.350591835 1140237.12717723
 -1649567.88297234 -255652.601797830 -321819.121029427
 1337454.45514300 470495.405344261 938003.013837424
 -1065663.87004508 1306117.13128362 220042.167431557
 -1164088.20350575 994226.786198057 739196.693759546
 690876.079243117 1528418.82060618 276814.291441896
 523697.940704943 1617321.29782239 -3505.21204781274
 1505361.06649710 777006.811551202 -141945.321436645
 1137437.15413595 -52103.8010577128 1262347.77866737
 -1063517.16453157 -340358.482259084 1281829.68615219
 -780779.233984863 -1241007.73058117 860397.350307276
 1065593.88543916 -1252098.15338290 432157.246392812
 188395.604948695 -1399662.21810956 -946283.663196536
 969837.643433928 1231146.90414490 658553.145761941
 690829.666444482 121614.324260367 -1548536.18882314
 -1393945.74795940 639966.290719543 733047.337140354
 -1104430.13584002 758964.057072174 1046043.80172197
 1097082.38928788 1080402.50341553 -720514.164834975
 -386209.793809629 -877862.175465077 1403638.12859770
 -3980.28664478187 1399742.32762756 -964730.829592389
 -435520.758793747 1238670.77403027 1079822.38457210
 -1647769.89094476 88761.1627340651 408626.776516147
 150045.113197465 1448441.84849795 877213.016048783
 1430443.76584302 609917.610418871 -686899.658801610
 140330.176332848 -1686534.92045615 -160957.769903699
 -210661.366556685 -346959.312381593 1650830.40443050
 -1615912.45793689 -293221.702197171 -439144.579432491
 -605566.177249896 -571866.046543724 1481978.01258365
 -1210861.94692372 809453.759990504 -876697.185993731
 -211343.377070486 -1625097.36374191 -452097.926701209
 640435.399537054 1116730.01843187 -1110295.71058929
 731979.854674008 -708481.433002475 1360977.42503033
 1134252.12230026 -661861.489211270 1079542.26047728
 -927617.604695118 -1414801.88343230 166916.775957702
 -202743.834168796 1140604.40587486 1244152.93553702
 730641.013981260 303301.150670287 -1504716.62471394
 1052207.02635771 -1159811.52368435 661587.184891345
 -467193.917471760 -1261042.13640400 -1039953.15937355
 -1124536.38558349 1229193.53698449 338380.209430710
 322488.147679956 1624896.61318522 381722.924468992
 1409596.13956214 756722.892737212 574812.305834648
 271112.878248854 1271426.19789810 -1095432.89641401
 358582.973615483 1363657.14125493 -949661.756699461
 848343.890784660 947231.518485278 1128301.86269297
 -461217.762614548 -729896.915773438 1464420.93258505
 -1172286.74293572 -640359.830136023 -1051514.66004299
 1449133.51568767 -850418.312491648 -258458.405724332
 1055284.33218654 1298283.99066795 -301386.226986088
 -668741.113574946 1053242.48288481 -1154757.80805378
 1409713.76981772 -631236.352241384 710104.045049249
 -728567.283229547 1351043.50430396 730664.877550306
 -914254.531855265 1102400.66716601 -915888.322894249
 -1349940.04114802 239592.328448802 1005115.61596354
 1320522.93327469 836153.668966490 -668630.110426899
 -1575458.54577782 628469.441269221 -113826.762786164
 -947942.013678290 -1334690.45796217 -458265.556340725
 -713346.392539419 -151716.246085396 1535616.84834621
 446914.000607908 668656.116650097 1497720.55929237
 -581876.204883796 295540.913853980 1569737.44633566
 1339881.35696453 628548.540816294 -836447.655921521
 -959573.176132524 -43760.4448903946 -1402606.26802747
 630388.837791700 -1513127.79308239 450615.351479788
 1467234.37863864 615230.064090556 598928.415071472
 -1102041.05980267 1290867.41606392 -95743.4940528764
 676583.930344048 -731039.942776767 -1377611.98719565
 -909823.411870488 -1208925.22792850 -775062.031382249
 1693003.40133365 153980.043459468 5443.27924248671
 -190838.762988858 -113857.611642330 1685413.00897198
 977140.343017124 582366.965490518 1263346.93079682
 1218773.41508820 818710.536313237 -856915.643691915
 469256.388457698 -1613224.11681093 -259434.752551097
 -1166669.31622273 -1182770.23833312 360468.126049746
 -935954.364798294 -1254851.92511927 662824.315365302
 -233976.243026034 -15882.7082209820 -1683746.67253687
 622894.475747611 -261333.380062767 1560034.40236043
 -1671953.44014201 304390.002954956 43799.7728118836
 1448175.31594012 447755.142655495 769612.621081088
 527280.494106457 1428108.62467813 756624.766086071
 421301.383267059 26315.9786157701 1646758.21349910
 1204259.62114741 968336.798502979 708577.878245510
 -885640.718827968 1374594.85654568 -464897.297811068
 247942.576015685 1313536.82605691 1050307.32911422
 544467.472957220 -601523.834041207 -1493895.66167519
 -861571.024760689 629299.215426996 -1323509.67762075
 495071.557349368 653723.210400317 -1489144.08882672
 1590620.45276229 512557.580656700 311787.270050645
 -403001.290830997 376857.011617196 -1607970.38293107
 -1005877.35437092 -1370405.79682138 -14096.0988258531
 -1421259.36170733 -599595.257386616 714497.973460215
 -1304044.56404735 -962311.030815441 -513249.700389084
 -47089.8776895064 -95506.0353729562 -1696661.76376629
 -780599.227141481 -1411475.19847304 -537031.293950008
 -950935.876216907 1017419.88457878 974975.762666582
 1596711.46383899 -363304.687049831 -456642.316931721
 -70145.3207795326 174176.229353379 1689598.25849253
 -606536.877624417 -1283765.46383600 -934911.359404496
 770246.249807562 78134.5798095671 1513478.01506840
 498615.597973180 1492248.22007069 643877.111841770
 1666790.13421648 -214694.745152293 -256352.910813561
 -1053161.69025240 1315226.51650736 -225897.464484718
 1585385.87793039 95655.9777167327 606136.578656934
 -1251403.96191441 255159.236533991 -1121999.05887496
 -882693.910991812 702829.213295069 1271566.96891552
 361356.410326198 -1098807.20385100 -1245810.68926274
 -643908.244714251 -210485.719947321 1559191.43599728
 -1018573.46686209 -739230.974394185 1142823.54679135
 -1535354.47632130 -650082.420817747 -331782.275270831
 670712.893238461 1552651.89406646 -171511.838353887
 -636087.492400132 1574590.81741419 77823.2595501967
 226582.554975116 1014690.61000253 -1345014.24221219
 -1046333.83932794 -1260180.57635956 455115.822229178
 396742.641599172 1446612.31583481 799942.550444699
 1586673.02235829 -609284.296314419 35233.0297456484
 -1397081.84385982 -516594.616061862 819324.309546075
 -1220982.47144992 -320189.804101349 1138718.70703944
 -531164.680173948 -1287836.80202086 -974341.035724342
 1362963.48692681 960345.632480862 -331763.167755631
 436835.394739088 -709694.905066033 1481724.66390570
 -1054480.01791715 -30092.1137598128 -1333104.03063786
 544137.015788498 -1508368.08697635 -564571.184386948
 700759.805099254 -338283.528429647 1511456.23487762
 407333.963228980 1604316.40792904 -387618.247312800
 -755164.873210540 836066.725845493 1273074.40638908
 -150096.382099699 1270145.15028575 1119911.77031325
 739852.843006112 -1529977.09939222 -42282.9283652286
 -176119.957222586 1671275.37672952 256554.820273405
 -635353.391483193 815314.453836434 1349662.33158379
 568434.472393988 -481570.106142723 1528061.67528142
 -1541457.38477823 -511370.100783236 502403.971856918
 622634.925906020 -416167.972467727 -1526148.73709416
 -1243291.53118643 -98936.1898375925 -1155178.68696601
 -330651.207449199 1575506.54100162 -546304.785146077
 1164297.66430571 905300.359358954 845483.416890487
 -159190.547072067 1676211.49249069 -234464.074358986
 107332.977503925 1280065.31618377 1113513.54650201
 1396376.40096367 -496954.622060114 -832567.745258510
 1254667.76705894 -1118526.12902682 254377.854750796