# OOMMF OVF 2.0
#
# Segment count: 1
#
# Begin: Segment
# Begin: Header
#
# Title: Oxs_TimeDriver::Magnetization
# Desc: Oxs vector field output
# Desc:  MIF source file: /home/martin/PhD/repos/ubermag/oommfc/docs/ipynb/thetaevolve/drive-1/thetaevolve.mif
# Desc:  Iteration: 458, State id: 925
# Desc:  Stage: 8, Stage iteration: 50
# Desc:  Stage simulation time: 1e-11 s
# Desc:  Total simulation time: 9e-11 s
# meshunit: m
# meshtype: rectangular
# xbase: 5.0000000000000003e-10
# ybase: 5.0000000000000003e-10
# zbase: 5.0000000000000003e-10
# xnodes: 100
# ynodes: 100
# znodes: 1
# xstepsize: 1.0000000000000001e-09
# ystepsize: 1.0000000000000001e-09
# zstepsize: 1.0000000000000001e-09
# xmin: 0
# ymin: 0
# zmin: 0
# xmax: 1.0000000000000001e-07
# ymax: 1.0000000000000001e-07
# zmax: 1.0000000000000001e-09
# valuedim: 3
# valuelabels: Magnetization_x Magnetization_y Magnetization_z
# valueunits: A/m A/m A/m
#
# End: Header
#
# Begin: Data Text
 -1277455.19695184 832551.324498773 751642.542606580
 -10918.9572379937 -1699203.08028814 -50888.7837555324
 -384953.809206762 -1649005.68901238 150302.369848313
 163430.058734079 -1531764.22887008 719019.445534137
 -186500.490557304 1022496.69541765 -1345257.62398206
 -1697578.12552459 -84470.3268570083 -33064.6581882319
 -290303.434644935 158713.740561936 1667493.28765971
 -1095444.42116458 -102387.920422800 1295962.28104482
 1631958.81707487 -14807.3348861700 -475910.876325763
 -225841.098922000 1661364.08063404 280829.467144577
 442192.211994683 -1490349.29388046 687986.213438376
 842851.131494573 1417457.24170744 412815.864604863
 -16502.9792148349 -1137195.03605055 -1263532.78614329
 -838282.975412488 -99391.3545824610 -1475602.59276265
 798106.011092755 -515371.546274201 -1409758.47731040
 -356552.783877187 300948.958079333 -1634717.05103372
 1195153.73899423 1156304.30401554 -352941.775202721
 -50808.6374616812 123233.635414569 -1694766.04682233
 829137.761213981 -510166.719482507 -1393650.06054659
 -1598874.20513172 550232.187967658 -175629.768230625
 -432348.699609383 1120644.21768975 -1203009.20167080
 -545760.695052688 1559446.11789547 -400341.190881409
 387873.038318268 -1576818.05311709 -503189.162750746
 -648028.143746540 917956.331988637 -1275702.04102462
 -516371.535085881 506809.406267453 1538344.78042859
 774398.275191469 -1475997.84136995 -334271.870865188
 379214.542143487 1532377.38293918 -630885.003216414
 1693198.62219093 -139635.435568070 -59836.2009528111
 416223.021254355 -1546404.76129319 -570430.285685859
 403437.565221773 1173361.94784942 -1162092.88368312
 1061102.17524312 566169.103954941 -1201463.57390525
 602407.748701342 896458.290617144 1312808.98743434
 1235023.83216268 1152454.13322529 191221.350278003
 1512911.91625129 618262.222388121 -467813.379492867
 -725732.922910499 -116319.539352456 1532899.69970922
 568797.322087098 -1601869.30237531 -22007.8280206255
 -997231.214816718 217181.102896223 -1359544.87705995
 536306.903167040 -413411.895312083 1559315.71865028
 -1029821.22041311 1071712.28658802 -825167.273201698
 1507161.43197154 396796.768942934 -678982.136829777
 1623498.34426224 -187224.099429650 -468188.277053723
 -602581.186613853 -1466512.10962861 -613382.544462830
 685072.683732311 1555465.29905839 -34686.0408378459
 553662.707888357 -373166.934968886 -1563395.03790298
 1331550.83045476 -1051437.11316786 -107015.807096299
 -350052.315805319 -1391112.06702784 -912288.656713901
 662970.597109456 1563303.55653426 80944.2863683433
 -252715.852953298 1457109.48520402 838431.062040621
 -1562757.15329371 649479.926060775 -161139.397645137
 635500.247549730 941299.328071874 -1264948.61964258
 484851.094238423 -1629184.88332344 -26000.6224193874
 -1565141.37379706 -298203.860270915 592795.865157794
 386765.939015524 -212911.443429587 1641670.13302739
 -888510.000051068 1448939.22645751 33542.4781727503
 -101062.512193094 1695326.40486838 -75198.0690261744
 1018741.19342222 1332223.35814690 -278113.834306153
 393749.558299377 1456302.13412960 783674.281489844
 864041.939481019 -1133037.18756839 -927177.576521885
 -44014.0519160582 -1508554.09495567 782513.454086507
 1354192.20363516 -420436.543825960 937761.477258179
 1002004.32203009 -964004.312666578 978101.745113079
 1020151.59206148 1358705.73912509 56651.9521548495
 757827.052705579 517339.354231828 1431103.82249178
 1621469.29797838 -478337.477027142 -178970.874124295
 1202809.53121206 770596.279953208 921645.596174418
 1636289.08159845 -409258.009951701 -212287.358860762
 1306281.98055922 -766404.603405390 -772173.148422883
 1382602.75810035 -638150.834671223 -755759.965532534
 446617.070078435 31492.2408919580 1639982.14364613
 1020780.22815478 -1098849.27157709 800336.181965285
 104586.183891140 -1162019.18176119 -1236435.66405945
 560739.048429528 -1348790.34804631 -869675.983676375
 1452536.43614172 736653.977652673 487317.985394756
 337542.592536681 1392243.52147852 915272.077103141
 -764794.106196448 -1027372.88981112 1117852.81697025
 -549439.345159573 -66232.5681792143 -1607398.41137877
 1112090.13256738 866272.506869165 950172.342729927
 -424667.987266013 1641927.33713150 -117182.422622591
 -76841.7058832435 -1693108.16370406 -132212.322555835
 -376212.967245686 -546361.770419568 -1565232.44890342
 1435344.08607098 755857.386690041 -508396.464943612
 -1541816.02262856 -430751.021371963 -572063.728926134
 169207.275156829 -1619661.85718919 -487918.401375125
 181146.631229913 -1465457.61392443 -842389.387269900
 673850.062522170 -1172393.12674188 -1030252.61446272
 890984.333391360 -1354825.02087164 -510486.121722537
 97666.9184300043 -1273941.97764306 -1121397.79322205
 1508510.61543211 -623856.128089136 -474551.635308817
 1096297.31705010 -1270227.83757916 273227.804711997
 628981.206521028 144220.854885437 1572762.85143675
 891342.442857715 1436509.59886758 -178742.333882419
 852074.884736696 1277296.85335608 -729713.052649870
 -1096209.09196857 -500984.907456764 1198891.04975639
 1113590.85456540 83352.4594514855 -1281783.04565620
 -352923.322198465 1661512.41019022 69438.0258381135
 -832678.590538528 138979.793430560 1475578.18561971
 649293.825689975 -510710.893609119 -1485796.72602609
 790911.422596171 1417869.64548334 504088.077645018
 -1384367.68494030 -91485.3265313229 982423.812782702
 342231.196926031 -1560470.95789688 -581212.695500517
 -1529083.09750915 -319348.954182721 -670761.601744027
 1527867.76302434 -534466.137849417 -519582.569187356
 -1145549.17454241 1171690.72151730 -452612.352698720
 378018.128578192 -1656725.59073785 -48606.7018072509
 380665.089859380 1354443.75981205 -954241.159701548
 -425823.291827719 1461582.28517871 -756605.410890507
 31760.1281323602 -924091.465933978 1426550.47469377
 1633638.45916936 49773.7642365463 -467704.989407315
 -987197.507664013 -1152881.20217010 -765706.219476356
 1372820.85328681 -1002433.77317995 22123.1817123274
 1661799.46092084 -243881.979267666 -262572.146031671
 1681887.92572814 183281.780989577 166315.345194519
 1564802.49513231 -505465.455497018 -431158.699931814
 -616510.721129767 -371493.632285915 -1540099.67596356
 1595866.89897468 -355064.188663926 -465980.968157906
 -614262.251822729 -413042.605614355 1530384.81825094
 -734002.878923555 56605.9027947368 1532330.10330696
 -1157797.13917068 430388.113026511 1168020.48641866
 797654.695898249 1121916.67679565 -997521.907749037
 -684390.283661279 -816794.382195890 1324559.12546148
 1052313.50830366 886322.881359989 998532.938975663
 47429.6810677362 -15722.4772320394 1699265.49693198
 1660173.14415122 -120526.693846805 345396.073384473
 596590.617635468 1566755.34132401 281704.340367723
 -1005920.18558819 -1351441.07248450 -227445.834932532
 1644563.50802654 -353188.890598846 -246309.714840916
 876559.827722203 967200.405747459 -1089112.59452160
 -593715.275973371 1548173.62137091 -375047.475884267
 -427515.265586437 898191.973082323 -1378579.65935271
 713668.990759869 232860.379282236 1525271.32517081
 -1665499.32238630 339714.828070290 26567.7006899502
 1670944.18181929 3885.61591503608 -312938.401659547
 1345817.73809073 957587.555714446 -402244.563644054
 -383574.460279056 -1601634.12579446 -421472.134917886
 1655004.60998480 -203220.724600837 331151.140752633
 1066879.80498438 -1100192.98763374 735760.063932551
 890999.869472495 -896617.265341911 -1136748.30639451
 -583437.228757334 -1045765.88949964 -1206637.76853660
 560491.853552324 -1163686.94124081 -1105297.05730500
 406831.916657804 1195478.62716854 1138120.66301063
 -1482221.57554632 -457436.464005875 -695536.542809059
 403582.107386920 1381271.67697875 -905102.224598662
 1614904.79352661 -483316.518792534 -220199.115590982
 -586792.936421949 1089422.38348012 -1165689.89021000
 1179017.89391670 -119852.618256838 -1218832.29187661
 -1027311.69130063 -1278379.04669364 -447635.679868899
 18459.0227169350 -1667542.61746201 -330092.234728831
 1350879.02536538 64220.9073059501 -1030049.28711819
 678629.092779300 256621.617248075 -1537402.97254641
 168541.449200535 -1291306.51225515 1092758.56039146
 -95257.3032636959 857673.132994853 -1464692.06426256
 1609221.86115864 -499206.885889900 -226268.616138471
 1254632.30485771 -658336.391054631 939409.908304463
 1087465.07098770 584041.638185467 1168894.81316642
 1602435.22983278 9685.72043250019 567545.170898726
 660019.434446365 1231700.53042318 -968136.431247357
 1338101.45666144 -273033.183058534 1012391.90663965
 -1105902.55524821 -1233634.82171527 380952.313219158
 -215610.468285162 -1665408.74068588 -264434.968211334
 1460792.93802624 594088.762147737 -634935.063532040
 984999.663827438 -847676.538205182 -1096001.89271566
 956690.754084171 -453289.530136496 1330139.61782908
 -1312225.41984440 -891779.957478185 610567.731668149
 1433077.52287208 899321.037503576 -165862.849795594
 -241075.144835433 -1676971.10454334 -140180.915495831
 946655.116367249 1361368.57944991 374859.549087726
 -7866.94655999925 1520414.61665535 760445.596089942
 -866031.150231420 210864.695893982 -1447593.21870973
 -798679.307523146 603620.126771389 1373955.64203901
 724008.837110324 -1479614.73418574 420180.249615114
 1362647.04078883 -835165.859272302 579388.496378212
 -478948.723931704 1104360.28805292 1200415.12570272
 279396.270187227 1619494.35777993 434943.386344075
 865988.235641398 1358011.57760757 543938.352034951
 1343617.58583176 -486262.160810890 920999.942457732
 815468.148577190 1409992.49120650 486757.509852065
 1559318.68695844 -660717.777184421 -148247.264442459
 1602459.83557643 564737.656919950 56514.1948621855
 182842.646812113 -293392.021772917 1664478.80373009
 1239097.95511320 -1064607.72551719 470368.630335167
 1121006.46328608 833425.041942119 -968889.678309466
 -1570859.89229595 -618088.562314397 -200912.239328723
 487387.493100210 -1098632.51550334 -1202272.85898347
 -157448.658040982 -1468516.05997037 -841825.695551162
 -1048909.06775729 -760741.958537670 1100482.36700858
 -135764.656772930 1439712.73462449 -893753.433409578
 -481700.178675973 1047070.05664763 1249643.64293805
 -177547.830803822 1639879.47549698 411426.875180269
 193663.980619140 260312.371270060 1668751.54890550
 1345357.01993331 -882747.015880988 -548427.018726620
 1580398.67605000 -41137.6079203190 -625018.177298858
 -1485699.11742956 -676911.503718728 -473802.647314547
 -1003633.84970110 -1369411.66152055 86202.0708896261
 1631449.29544570 -58561.7557972279 474282.317979151
 -1028588.60448312 905551.122012378 -1005973.48282625
 1488319.92585140 -809848.134254101 -138021.004774051
 1601580.09789365 -21291.7150030009 -569638.352731960
 124463.208497125 -287630.000259673 -1670861.42234514
 955683.459810717 890154.405800416 1088252.84675866
 1371488.01156774 609918.309564037 798135.508409767
 118534.729328327 -598854.847433620 1586607.19450288
 531629.977897096 -1103448.21115691 -1178885.75014534
 337543.660257875 -167917.846964855 -1657669.41037422
 1197573.88004765 -1186831.19708681 217367.227173527
 389895.602830441 -1652524.90312170 84515.4628225982
 -549351.286629586 380169.023030457 1563228.92687107
 -821294.691139087 1463037.08578167 -273856.743452193
 1170438.15486213 399689.530182057 -1166328.77230469
 1147167.15542821 -977984.179859230 785846.334503017
 -1108435.78922502 -890252.328815344 932105.622879709
 831945.709353619 1306120.74673627 701366.474557477
 -861057.135302131 285452.734838137 1437740.36109400
 896440.688441675 -1428880.17234912 211413.209553636
 1018204.15975645 -109683.072932522 1356919.27267865
 -931297.361819225 350169.925679709 -1378428.90531867
 582196.009721159 1586368.32579653 -185696.906743922
 -490687.972192531 819318.313087055 -1406393.54939710
 287576.014525384 -1675028.89676069 -39726.9541538974
 -631186.109651301 272069.298932172 -1554857.67566096
 716438.704106872 472738.778145941 -1467390.07455235
 -1548767.79641712 451496.623312488 536161.460680153
 1633791.11352103 -8052.11212402865 -469746.485745295
 -474521.594546179 -1092738.92360159 -1212745.19217987
 815633.586970040 -709793.799074590 1311843.97494582
 -1212933.57622730 -1185562.38294463 115039.018628827
 -1124234.81283271 -1134626.66429539 581995.204692364
 1173977.65273089 -895458.107182399 842574.180217858
 171158.366082809 -1423569.31771265 -913320.979386222
 -1536364.80867065 725660.347325419 -54774.4009363892
 1411890.25785626 107266.897098928 -940776.122442179
 892008.881136926 1029113.12498072 1017470.55582227
 1005728.63961973 1370586.21408215 1825.70989255938
 -67325.5467803969 1453782.23872546 878626.469620114
 74418.8838962535 -994441.324236437 1376789.12051574
 1636060.96760870 -326140.692069967 327011.864071340
 1665050.45987087 -271519.878259407 209484.896338136
 1401644.81846888 247534.786663536 -929579.653526679
 476487.484164474 984368.486504912 1301529.23909171
 423734.283375627 -1491693.70535702 696634.155414721
 1189240.04921039 -96018.8423236164 -1210986.57600855
 1357138.01968719 -870315.431883228 -539191.472990298
 744056.392936640 1523168.05557579 -127824.718280837
 1525943.25512209 467756.229518936 585406.945546122
 1032295.56961592 406620.383729523 1288031.72340086
 1087448.70575836 43158.5538352045 -1305983.40401986
 1077604.10185733 -472469.258714195 -1227005.37864767
 1351644.30755829 -1028655.17952004 70186.8042573334
 -817622.502372969 -1441864.95495564 377516.748349160
 933979.372702823 442261.052602344 1349847.28496105
 1422335.65365054 756365.377290917 543021.826808141
 -1314231.03344068 395400.717508500 1003222.33993029
 245015.964240292 -1024221.96933504 -1334517.34151298
 306167.651186772 -1085792.00735603 1271737.82130144
 -70807.8307622872 348711.722530492 -1662343.64247365
 1017592.33199889 1273969.12633127 -481153.313416624
 998848.069403000 -671724.673273429 -1200453.45497675
 1485418.02466790 428080.685451909 707304.897999965
 -962112.453848841 -1018389.49220705 962923.916159128
 -465824.351981826 -1299271.90558299 -992421.376464385
 941130.584405014 -519020.820932838 -1317152.46290461
 426623.813489738 -322528.204603019 1613681.40566812
 948459.961533569 -765383.960376423 1185162.89790317
 1484103.12327584 416920.857556002 716669.322643065
 1074966.10161040 -679914.164879634 -1127902.74792846
 7141.88490912577 -1689132.86114361 191778.963613673
 440570.682417295 -1574642.50074954 465186.488010566
 -738247.237116699 1528022.95196527 100682.049824728
 502956.475529547 -290342.648742689 -1597728.36553776
 1277489.85839886 -955465.876895430 587456.057740921
 1315626.03489718 550880.278846943 925018.407751018
 659265.253075201 1162490.87125836 1050706.57194512
 -790419.968227731 -125849.784152592 1499799.35513242
 1464101.09557903 93574.5672773778 858866.568381340
 1639728.58634653 -446915.263298369 39457.7058247199
 -878742.348511251 -389348.851323773 -1402219.43964053
 338595.787369077 1284401.64307853 -1060973.75652421
 981028.057130415 1128128.79304354 809264.714063978
 1074814.39676811 1065775.11546619 773884.626900564
 -1023272.85276829 -1356622.08531354 -49891.7470828962
 -1279089.62600077 -361219.449581711 1059929.35514642
 1056112.87318262 -916035.105677205 967215.221274412
 181877.161547052 -885630.106551365 -1439645.79410263
 278001.885216361 1049738.50057250 -1307961.78546315
 1138517.70058619 560200.643328164 -1131349.93908456
 -514037.575094451 205820.852073970 -1607296.84509196
 1142234.10842266 1114459.39232886 -585902.299369009
 540596.770438557 -1527653.17844610 513839.370012584
 250663.834724184 1664316.92000850 239200.400783061
 1611627.31138616 -533243.383882241 91153.1828299237
 1570142.85827608 592682.437408543 -270885.461020150
 -134880.820372274 1808.19185011668 1694639.75367567
 -843134.656241851 1441225.30340662 -319364.331546943
 1131955.17005171 -924968.292983524 867819.768136415
 950489.481367487 1409074.86541007 -32829.3996191389
 533189.408365495 443983.598817889 1551962.50559979
 649430.363683843 -502790.605424654 -1488436.02812556
 1683128.16107643 137116.848550942 -195649.081865798
 1270305.58768273 610247.318942457 950748.086311812
 1606394.89229251 373490.117039135 -412311.268934815
 -1650563.61297044 -9650.19538693431 406874.222907951
 725371.070333420 -530730.305261785 -1442969.90730926
 672424.235851898 -1534522.46991486 288247.179284382
 -417139.981914449 -455494.933509161 -1583830.35740445
 250344.909928447 865401.013662004 -1441668.65528307
 21613.2035080033 558959.996368921 1605333.79454037
 637134.135616451 -640142.695595200 -1440235.19694125
 -604557.427116466 -1587120.18751150 -74564.2522377358
 -844498.934725897 -666389.770248710 -1316338.18730397
 1587523.28653007 367429.594268557 484525.858938840
 1185419.36112884 969060.973314085 738716.297546261
 1562161.64058749 -23793.3069908952 -670137.961332908
 494529.336208613 872766.811949601 1372486.36699546
 1143029.51799575 -909194.594944082 869970.522210307
 1604027.56944069 562827.893807363 17897.4419000192
 1492518.60357011 300717.254053730 -756278.620028038
 559555.861588417 1325087.24422002 -906113.145786679
 -315283.480432775 -1207211.46452837 -1154658.74044129
 -872145.515206979 1119065.74555374 936511.642977606
 1229656.91658249 573237.747305837 -1024374.12724286
 -1342217.90364629 -842515.090099109 -615320.584806530
 -85157.0452746390 -23562.6961305546 -1697702.29339279
 1069563.10529407 -1236649.74803984 465545.018732550
 -803613.568413842 -1182616.35520744 -919578.049464557
 1674907.85571110 46506.5983656718 287264.357666767
 904412.339637899 -852695.472038331 1159719.25562872
 1070549.72958844 1057210.19833578 791346.872751095
 814958.400353044 1385276.89255587 553941.094923253
 1488442.38791379 201178.146249209 -796282.997013765
 -1349609.83283578 -686834.642352584 -772535.742330002
 1646357.09559144 166875.602433385 -389436.576489958
 -387254.033827562 1654948.31803283 -34356.6285394866
 1013317.36830374 203842.897953838 -1349679.95615544
 1208874.72357388 -479830.594560916 -1094707.49665264
 1293155.08420823 1091894.58993178 -159737.699570631
 -1177004.11718886 -144046.827735530 1218159.19302028
 1504162.12664588 -610398.461959343 504886.140037341
 1042306.97296415 27785.4886569615 1342692.86909941
 1536473.04012349 -603957.367583673 405568.853729025
 -970013.984681232 -324567.966117474 -1357839.64623707
 1060753.27981410 -1265473.36872808 404202.464618447
 170824.907305627 1339149.85209717 -1033197.23415819
 1261127.16325784 -747433.987697051 -860755.895784933
 -1125789.92742747 926392.435928088 874296.342185004
 124965.413123184 1632874.91497297 -456183.249993886
 -916294.113039620 -345502.204797984 -1389616.25094436
 -708528.463170196 -1043457.27014285 -1139817.67939601
 397645.772152450 -1295075.99918981 -1026964.45713170
 619876.920302266 -784444.803718272 1374917.79885053
 803961.471389270 1432345.27070857 438215.675210724
 611991.292976088 471532.439639758 1514306.38105003
 663209.587689625 -1211706.44618611 990919.033558032
 152170.729676446 -459405.223689312 -1629659.75267131
 1072777.13819510 -284683.859332288 -1287673.99290411
 -136684.997281411 -212533.773476538 -1681114.69170012
 -1564195.97432292 -200859.694696547 -634780.542359617
 1561039.85317751 666714.672450408 92984.5273736115
 -231428.461866201 215145.545296585 -1670375.18581224
 1147370.83033008 557328.067160647 -1123799.62771957
 69100.7640361710 -1693660.28162275 -129382.900196169
 1487755.93289547 -53384.1272498678 -820812.048578776
 549874.904124839 1193931.05267544 -1078038.13998904
 847856.043711074 -1201619.52412360 -852789.920430336
 -84918.4913134328 1533890.49478188 -727989.560262267
 -527505.112053147 266730.006804639 1593923.91920938
 437880.300134032 -402321.001983365 -1592607.50158902
 -406572.955185901 -57769.3001330024 -1649654.85483284
 353501.533282205 1627458.06990917 -341199.203771983
 -471581.315558179 -1441240.32317387 -768399.241068133
 -1084986.56050170 -307012.454340686 1272221.48873944
 -856052.459511704 966735.090181539 -1105711.28780331
 377597.651110769 446718.554141126 -1596202.53954869
 1428518.21746254 -421976.736129118 -819311.501532516
 576054.477307716 -707509.318004860 -1434430.82932222
 237260.713616401 1452201.49110367 851362.544989209
 1340253.42268262 -457137.651252235 940609.340159401
 -13505.4716947973 1395572.80635371 -970666.855517549
 816018.930728109 -793237.922303392 -1262888.23864709
 699984.018354183 -130277.121167569 1543713.13583484
 1310165.76882017 130103.854158207 -1075424.86736407
 -1471783.51425991 801027.160091554 286720.728145734
 568439.339215523 -1560241.49962640 -364037.333903789
 -788307.416027725 567215.534727981 1395291.35129511
 1601548.05904486 -355618.747963609 445622.172548048
 1148936.47907837 -1226859.98420807 -254478.970038713
 836135.985343254 -616152.006987154 -1345820.68578982
 -1582580.28904462 161960.499818330 -599339.991345519
 110180.519488583 -1383278.75161836 -982038.771355984
 155401.691354806 1458879.32746733 -858790.674269667
 -1440116.81418721 -326682.847623848 -842224.363553836
 1445408.91250967 -727409.876897122 -521217.753563819
 -11462.4061504267 682979.698444079 1556729.69547012
 -270914.775714013 -914789.915176109 -1407041.07807552
 -1244080.91340402 -308334.357454158 1116777.77776832
 163322.189758799 -1555725.55881863 -665615.390425163
 384897.084709109 459030.105987007 1590957.44631338
 1647471.26803738 -306798.848234893 285854.661870426
 1322039.21894560 -780313.098926562 730290.196574847
 1652363.08706579 -282093.542628853 -283053.814158204
 -9179.84387081418 -1206731.70702641 1197378.10140474
 -1093085.75327719 408238.625951501 -1236327.12510228
 1266292.59403938 -29318.8483107672 1133862.19242673
 365663.169863027 1605630.49970567 -422186.149252476
 708782.538627202 892611.429651591 -1261297.80329331
 -491358.396957512 1595498.27363274 -320861.628391868
 -717688.806142812 344089.165103900 1502173.56653464
 536354.817126470 1410918.26392894 -782069.793980673
 253455.696106833 946736.479643374 1389046.52485922
 1136475.38190034 -14264.7094712126 -1264207.35023895
 861777.915977241 -1169566.48799139 882866.384965134
 -1298651.68024850 930424.585819736 581217.604249845
 -363031.692646497 1032306.42347462 1300980.95227688
 -864648.134621674 -1286385.99446545 -698279.798174340
 -358950.588081465 -934181.326198900 -1374212.40174044
 96075.6180322792 1697047.43308562 28275.1742209086
 941947.794580972 -1137943.71418134 -841319.472994190
 1652167.13911172 400041.444521317 17623.4816276836
 1308795.14626518 -994011.489691532 434737.188970436
 -146337.820559892 -1151058.76880736 1242436.69980626
 614867.869752222 728992.973750204 -1407304.78112213
 1431389.96928321 -365585.459201976 -841112.375283768
 -1267295.09324793 509038.760527268 1012345.14218748
 865986.209967246 -1227231.48400493 796222.813547582
 -89849.6910600221 -1695477.46151644 -85341.7278134003
 -344653.171687276 -636047.968403201 -1538394.34903280
 -1514199.80656852 -452713.979210406 626297.851517424
 -1101511.05865911 1187783.70304396 -515599.905386794
 1314230.53806983 -206728.782116164 1058329.48718698
 1164567.57376924 923448.585110059 825242.435156759
 596248.127650299 -1003688.22049174 1235758.11804723
 973121.373543097 -939912.639480673 -1029368.26379001
 1084375.18457412 -477344.040612811 1219128.01869667
 1225296.22044445 -785747.935279326 878208.035928174
 1216833.08588888 -1042868.27731771 567223.939243181
 -1583845.40002240 -284902.267648059 547963.910049637
 1606699.88391274 277938.854194455 -480900.692829453
 1362872.22976677 -651498.583211296 -779826.186662269
 -1403032.64410453 925815.646133027 253702.165840842
 -490030.048806981 -87196.9628474275 -1625505.22636392
 1128159.07391348 -1005971.59583402 777996.306110655
 1399028.22720255 -290953.663752185 920904.981547870
 620263.960881700 905765.324292199 -1298022.26334574
 88072.5182813002 -1695845.52225532 -79694.3923382863
 1013135.82187572 -478532.008569471 -1278500.26327986
 624966.506272861 1513069.95863065 458297.028494130
 -626886.280968225 263524.113192571 1558065.67014998
 1406422.46570317 874234.602672073 384304.186102915
 -577857.330265837 -1525787.68011592 477548.804903239
 -410605.763291795 -1221470.56910185 -1108788.77878952
 837078.726516213 -1479181.93177906 36332.0562640404
 368349.625012076 -1596040.39860295 454943.512736261
 -1539969.10441736 695599.767189148 186107.821776549
 1530149.24565426 573827.560832149 -468364.405621427
 1416302.14546396 -900746.754096847 269710.062359888
 -112943.297486262 238810.159781076 1679349.13556957
 801476.319350647 -966272.838453113 -1146277.67630182
 -574594.750634683 -27616.6473322179 -1599711.90948033
 -1624637.33262252 499679.424414166 -29563.6646292555
 399340.087974833 -1252839.26816669 1077460.56181923
 1229135.25079704 -232113.487239989 -1151238.40462755
 386921.793757768 -607040.222297356 -1540062.88638758
 206117.386263976 -878724.490427932 -1440610.59728223
 1647917.08235298 330714.425079321 254945.599557428
 1282266.68337041 -1075504.58792743 -298466.135541867
 -212023.685807662 -499967.719195289 -1610924.65262010
 1274799.92737329 933118.662957242 -627833.342543967
 1395825.29482063 -703140.778604549 668778.582045125
 1488987.13833565 -818586.971572398 -53222.8507593337
 1324632.61575162 571232.149781565 -899467.767261812
 1623460.49392066 43859.4322879104 -502446.390053983
 282070.287986427 1608522.87319516 -472324.590767019
 482051.534486183 -1352232.84668205 -910545.246790999
 1039095.82261268 -1345407.45649380 -12595.5325318671
 1062882.83898850 -184362.938953627 -1313883.70007551
 153932.745209863 136229.974175222 1687526.62322358
 -1535834.80163306 -557748.926370660 -469177.575364723
 1248650.46458611 -428619.193960656 1071054.43552483
 1265262.39967078 106247.283005270 -1130408.14524371
 541988.101525551 -782901.117548082 1408302.07624170
 -766577.545835399 -513392.608202703 -1427860.95123573
 -570429.057813727 -993992.910448029 -1255622.86693927
 1167461.14163095 -1039060.21416795 668870.954755117
 -117153.587515358 1598843.76594801 565662.133275229
 175291.807139886 1675157.79735883 -230475.890924720
 1638702.93722819 445423.914489109 79058.3323939600
 1093442.36705696 1290412.84094715 -170934.168157149
 1366592.29286702 607681.509930928 -808176.148846599
 84267.2174818388 405150.353408719 1648863.92015553
 1637358.77901725 -72141.9754313931 451499.461966466
 1074816.38352272 -1109049.52734444 710477.929008501
 1185273.44932848 1203113.79466594 194020.739616892
 1695273.57721790 -125507.603866661 -17185.4519423937
 1605060.75486847 558751.758195101 -39704.4820508964
 607758.503259137 1267250.13303213 -956403.001901528
 -530621.479064332 -1428616.60683850 753322.929838742
 -369490.312976611 1154382.08516891 1192006.25420235
 686843.683970216 -499856.792869240 -1472545.05547800
 1138606.97174960 309188.630971391 1223918.52439664
 -774140.384407048 -1503333.89821011 175196.620180035
 443732.263161364 1525969.66044188 -603753.487808218
 579717.941586890 1587512.19277169 183663.131856842
 -727710.042202840 -1062236.39041388 1109996.37177678
 1648814.11131380 -348589.447608433 -223377.311624390
 1080002.76807822 567427.898636727 1183900.16504437
 -1360907.86930471 272677.469084212 -981619.462479399
 623700.416165683 1429768.90375930 675839.235852488
 -357703.292602303 -181235.756576970 -1652029.64713090
 -305037.105308321 -678188.149159882 1528729.27581185
 -657752.902060102 -45097.4803139200 1566948.41558389
 148857.933541351 710936.359375338 -1537013.60063597
 216498.489753750 1667743.42422361 248516.146141982
 -298803.037693783 1315167.46757816 1034916.07238898
 232207.491773653 -700345.919433109 -1531533.63459559
 1113928.98685559 -150093.458498427 1275395.68995621
 -27272.3586883108 232996.928884653 1683736.51429845
 216924.506468653 1556216.93644444 648947.305423809
 -963916.987114532 1372287.86257012 -278729.374474209
 -1090054.44499500 1292397.21899599 177456.291176372
 447054.170394778 -1483761.23444123 -698995.828243674
 -501228.671743889 -1624378.43864658 12826.0158249159
 1457026.77589979 647221.246686206 590065.786289131
 1045610.13368151 1322123.42198944 220656.079384763
 1340409.78045075 1013350.14430881 -257726.804002355
 1229408.87670347 -893387.400044658 -761848.257413605
 319606.702473558 -1669653.22933984 -10471.3651942886
 478601.994674590 -1602194.38331661 -306452.751272038
 1330728.98260259 -1057808.84062633 -14171.5050100034
 -1055723.36616335 -1260178.99823221 432893.828266470
 1318742.40411394 -829957.516249020 -679771.279779861
 480132.119133949 -728035.611785597 -1459259.16003564
 1308834.23732463 18898.7538624111 1084709.99640886
 928664.679671661 -406048.984254247 1364809.92636939
 1522094.38540447 756491.519083796 -30810.1196765602
 -353716.693390328 1413680.51543393 875438.119514721
 -359364.426692196 1049444.33421005 1288225.05728720
 712862.036968905 675951.473185497 1387413.89720116
 494410.533906580 1546914.62574400 502606.570412201
 759258.086215959 1421209.49561289 541932.401776683
 1224950.83908234 820640.340967515 846194.346830678
 1551558.23806324 -118545.121939970 -684553.933567212
 -1128327.91802917 -1120041.43280791 601982.805559725
 -492028.317372690 1596939.47548635 -312557.909093310
 -192946.219752150 1602239.68897646 -534415.321030350
 1076716.44110903 -1277911.58319157 312447.901241665