# OOMMF OVF 2.0
#
# Segment count: 1
#
# Begin: Segment
# Begin: Header
#
# Title: Oxs_TimeDriver::Magnetization
# Desc: Oxs vector field output
# Desc:  MIF source file: /home/martin/PhD/repos/ubermag/oommfc/docs/ipynb/thetaevolve/drive-1/thetaevolve.mif
# Desc:  Iteration: 1988, State id: 3985
# Desc:  Stage: 38, Stage iteration: 50
# Desc:  Stage simulation time: 1e-11 s
# Desc:  Total simulation time: 3.9e-10 s
# meshunit: m
# meshtype: rectangular
# xbase: 5.0000000000000003e-10
# ybase: 5.0000000000000003e-10
# zbase: 5.0000000000000003e-10
# xnodes: 100
# ynodes: 100
# znodes: 1
# xstepsize: 1.0000000000000001e-09
# ystepsize: 1.0000000000000001e-09
# zstepsize: 1.0000000000000001e-09
# xmin: 0
# ymin: 0
# zmin: 0
# xmax: 1.0000000000000001e-07
# ymax: 1.0000000000000001e-07
# zmax: 1.0000000000000001e-09
# valuedim: 3
# valuelabels: Magnetization_x Magnetization_y Magnetization_z
# valueunits: A/m A/m A/m
#
# End: Header
#
# Begin: Data Text
 -547613.883331357 -1352458.46521844 872338.887498276
 -1513596.80997111 765175.937142560 -116320.600339202
 -1525585.10991587 424959.017405238 -618061.409512810
 90293.0091618029 1558350.71371661 -673342.576669144
 1419573.31367098 -234422.471617907 -905459.944952704
 138401.571775435 -1650341.47960597 -383689.986345820
 1699075.31243809 -36512.6832764577 42542.9973479876
 -1474775.66462792 -809094.885215373 -245768.602021519
 -246025.739641360 -749507.082652523 -1505891.91793024
 -385667.475539965 1304530.96007251 -1019538.90191739
 1645141.91381875 374227.807771929 -208474.533905181
 623482.346542482 48341.8685500898 1580801.32442220
 -1502722.94238715 -678859.923716104 413488.769370445
 701048.355194033 -1527898.49214681 253095.636815928
 -1696668.81090381 60569.3639184040 87443.1144274930
 -808206.614536398 947154.831509902 -1157454.01349992
 -863148.182103013 27647.4841915540 -1464312.40940932
 1288052.88622655 -460929.999436957 -1009189.42617454
 1081968.04880885 338808.900575285 1266709.78138157
 1646360.74804050 -279449.432339384 318440.421549632
 1601822.33242091 566055.223059238 61210.2916591957
 -827664.828104017 -498776.082268077 1398639.82214037
 1659499.55802538 -272729.068700120 -248354.730173484
 604432.583661396 463594.077195303 1519783.46595752
 -213179.019711521 1407007.36117353 929991.930695275
 -1377294.34734416 978316.954139747 189621.248852938
 1685606.25339592 50179.9643214912 -214973.323213060
 399785.018855815 1119674.87928213 -1215113.20600304
 456920.327255019 -63375.5364908704 1636217.39262106
 1048658.22467408 -462348.600890778 1255607.30289281
 1083844.25943434 868827.513120002 -980010.394708615
 209094.849602315 -1496608.32836863 778744.409499965
 -1117380.91645391 1155236.57477017 553975.039020639
 -806652.090761904 -978356.238557069 1132312.44581428
 108796.697346884 472853.097450659 1629286.10958227
 1463423.60351155 -798025.374264442 333986.315161811
 525030.407228422 3306.95944601802 -1616889.64852422
 -542540.645037994 1175792.90411456 1101435.74261761
 -56891.8184075927 1595830.89498720 583169.851417783
 749304.633826072 806833.821056800 -1295207.22315993
 -574304.012613798 -689153.658073508 -1444036.75045325
 -375248.573802524 1607182.18479813 -407619.838485191
 260004.855489738 -656721.384210087 -1546322.89598355
 1019352.88864919 -926742.763951302 -996025.872086897
 1110390.02585760 803977.087010390 -1005313.30143306
 -1658855.30288236 -289478.583287993 233240.720965784
 1165156.98749267 1067564.97419076 626669.147459869
 -1405798.70859096 23367.6927844102 955606.583201428
 -368217.549389013 594028.937529454 -1549692.05253804
 1290441.85994664 -599016.889246327 930558.204786309
 1157156.55322608 182903.182648800 1231882.76110305
 1269863.20995213 -194707.362674160 1113344.72241554
 -797414.322149612 522643.510369197 -1407470.83802814
 273056.288023487 229097.257532340 1662213.79797004
 -1137108.82280345 -635248.150658176 -1092448.31099138
 1141471.02673234 -887936.920402411 893650.894095058
 1599332.79389698 218995.045425467 -533081.405082535
 -1017352.64666993 -378027.944739779 1308467.98405980
 -653830.046374385 281130.966623128 -1543849.62028807
 -519182.171140756 1007687.58002294 -1266892.10836483
 685227.488806202 -1489680.68669973 -448681.111991766
 -1038389.19809160 998070.017198217 903108.030114135
 -1027926.86734462 -1330214.33304178 252776.944283492
 1245905.26833193 -122515.684676745 1150091.28739894
 -587184.081794651 -668785.799151946 -1448426.87386684
 89351.1764131065 -1665714.25077462 327738.313353719
 -419059.124644030 -465482.894666096 -1580416.12394516
 -611131.719600917 449651.307555411 -1521292.78014172
 -323096.058292880 1665367.22941521 -110276.599083966
 -414280.636657664 654900.370207481 1513101.80067060
 1200161.83056834 167725.767901750 1192258.21331984
 -447436.908138400 -1335150.62091638 952456.315377321
 1207965.11897725 1173214.07951721 -233214.482733948
 1045814.16592420 1216700.83294774 562060.329018634
 1523468.06276695 438201.352003347 -614023.319452566
 -1392387.08929035 754454.962977178 -618106.707953135
 1426693.54618948 -688287.911567883 -617094.219751579
 -523132.666276313 1308934.13081710 -950275.567746915
 -230421.771202031 1607437.48824341 503041.279365657
 1189905.83346023 145402.858115786 -1205397.07828959
 110268.015095169 -1692122.06407498 -120680.922757535
 -1019707.93206260 -1351628.61904872 152629.648027717
 1157584.38209804 -443198.651646662 -1163431.71415485
 -1650341.07181004 -407590.379237246 15634.2396722907
 42531.7634121599 -890953.358848436 1447201.83853454
 563585.505685301 -464035.774582288 1535266.15858269
 -1526428.11893847 681471.281959315 -309215.280312405
 758375.945232795 861766.769159298 1253883.55171643
 922059.416960799 -702943.145682128 -1243252.73598429
 1075384.75153196 832562.041766217 1019994.15821005
 1426295.06799630 662304.452259592 645782.619405738
 1094070.58778776 1099894.10262602 695156.465801948
 -449528.854927014 1399614.69680753 -853816.437572133
 -1199609.70136468 966271.294078232 -719205.360541845
 -763359.126733072 -919233.812965781 1209252.67861341
 -496639.665726156 -1622760.73917985 -99983.1275959334
 46264.6854744769 1441912.64732946 899303.895437638
 -42581.8941214128 -537940.905509229 1612081.37650459
 -763047.687316309 -218960.359393013 1503267.96942385
 1122135.15367780 -1095052.03192350 657018.830978768
 -59143.6565712169 -1698811.03771990 -23304.2058095259
 -605946.765433185 1001839.71133480 -1232536.29165784
 -57260.5090487257 -608798.671968560 1586217.32783147
 1355291.40726430 -526916.916386882 -880649.626480868
 -1014254.03250011 -1029234.93691182 -895524.540254133
 57603.6899838094 1625440.40483406 494596.103131761
 1547676.75466764 248402.395771139 658021.969873799
 -882640.393823066 -234962.154217476 -1433784.75416547
 -1335534.77845319 843290.025920109 628656.335151138
 69685.1187939363 374253.848021581 -1656827.70421662
 343205.583712607 203511.855941344 -1652511.07463756
 615074.353039124 -113280.735573485 1580775.44742491
 -1354627.12046836 203292.037069587 1006805.69731985
 -894309.441026760 -1441936.00409391 105029.442482114
 -20019.3952150683 -749951.598356827 -1525507.07108727
 -63237.2796915974 -1154935.43626944 1245843.16208194
 -437917.481987101 -1582080.12001554 441871.896392707
 -892492.039666982 -474524.863378577 -1366851.89876834
 -502911.295545447 -1618991.69473008 -126277.952184158
 -1369812.62442539 1000537.97539547 111969.342930774
 -645047.875195465 -1056796.08411581 -1164944.32283406
 375868.068616993 1067940.44760766 -1268158.66332162
 -1094787.92829603 343928.147693208 1254253.89027964
 1044191.47654478 -1163083.75246538 -668506.054619017
 -819117.801912753 -1187038.53339775 -899991.970418931
 611689.244029008 -1053417.04995964 1185811.44689767
 -1037585.41512660 1158176.66829367 687054.081813599
 82845.4697778223 -795778.360838810 1499957.80892597
 -493671.575317462 -1569588.65226800 -427410.620358333
 417118.926448456 -778461.344298714 1452587.25611618
 268645.013074056 1523154.81816016 -705570.164381920
 1549400.39694979 671228.972389160 197002.732359774
 -1145855.78168882 1250320.49825768 117103.284356042
 -652462.574226421 1155005.16049647 -1063134.83080010
 1602899.95445142 -478919.962312452 -302237.333429030
 1634964.35710106 410772.438182668 219448.296959881
 752735.456245437 -680808.864259503 -1363777.33639207
 -856689.179231379 952353.695633064 -1117634.14792226
 732322.966709011 -1148420.40539255 1017267.73511624
 -108755.978328110 1689794.10725529 150890.729546846
 -90372.0316763406 -1428519.01286859 -917151.201146052
 753055.849316556 484651.567967353 -1444998.18182478
 943543.803164669 1248034.28023079 -664932.723573127
 -1281534.83609472 831216.471078961 746155.239935169
 301012.486707478 1647708.09448789 -290601.992775809
 1376063.86548811 -658707.264178885 750035.317979023
 -1130379.71042404 -113161.962029188 -1264688.13571227
 -198582.570364733 1674416.96317154 216547.445588114
 -1600485.67658005 16015.7763467601 572877.904941453
 -307202.683482915 21761.5702888389 -1671871.09111901
 696767.081701327 1116131.51921698 -1076459.96937546
 -795662.208464975 1371390.70853447 -613358.928007052
 -560775.844341256 -234577.535615433 1587609.47093041
 -1462683.59897135 85900.0848137740 -862077.644257876
 935495.347030924 -646797.200861772 1263527.53695393
 -917710.017615190 653953.343960530 1272852.44529426
 -611363.061041736 -695393.908925717 -1425714.73970872
 -946845.067734607 377198.312606241 1360590.25818710
 746088.533979395 1205761.65414093 -937811.672388331
 -498040.699963911 1396766.06190106 -831264.115369391
 -925204.692368549 508555.677739126 -1332429.13502314
 -1267537.21483513 -678113.780711039 907475.128814997
 -921850.361252648 356011.246937417 1383274.34137716
 673996.755173726 -54002.7090810034 -1559747.44155174
 -1513103.45083380 -185687.271140227 -752355.091968781
 1168452.61315495 -1234670.44299228 -17532.4844958115
 1366145.32800476 780846.750521681 643370.262734072
 1581299.29146183 -270288.533560445 562527.029971050
 -322759.572671242 1635763.62434896 -331818.660575045
 1029935.03086389 1228825.81415676 -564996.416503110
 1290807.76235396 787662.692801358 -776790.063669501
 -389097.553659263 -1649074.82868357 138402.684723296
 986363.728800833 -1383220.93841317 -61533.9746929267
 -538443.977577398 1379218.94984309 -835364.095113243
 -138565.605778047 65869.7568547124 -1693062.53517915
 -1319086.92981663 970494.356044372 -456235.001367675
 -518516.837894351 -890743.095228130 -1351930.85145782
 816037.607883867 575423.281261492 -1375852.70647022
 -1404250.81362358 -73645.1080917873 955330.335795777
 -42410.9373004426 -458933.159688235 -1636331.77177975
 -1297050.19352860 -831432.233910541 -718596.712963504
 -676037.868046613 633197.175234758 1425494.34872318
 1527023.12421004 326673.542332169 671926.167720796
 -620991.158400846 -497165.954253553 1502396.75023581
 624948.358030020 -1572288.70764577 165371.610638536
 -282158.657721542 1411108.76961701 -905073.771679820
 1236549.55784814 -748449.320900377 894856.862872115
 68696.6483143808 -1303155.57404027 1089525.73184765
 -1556261.18370981 -313642.706658601 -608012.648419439
 1282058.95079047 -630196.739170772 921507.957988731
 1618474.92631447 373058.830988472 -362444.508184215
 -1190389.54050950 -906171.605810727 -807357.270771738
 -407661.586211332 1634009.51341190 232002.028454616
 917669.846824953 815643.365369989 -1175843.50691586
 1127063.45222332 818906.795378552 974227.712162457
 1273436.43027189 -129120.166028910 -1118788.47007871
 407583.952917148 -697407.315237552 1495826.98129750
 -272119.088907301 -1643006.02061112 -341295.206072216
 1395640.21430185 -952824.603053643 -185239.488336458
 253093.403917154 513731.133743816 -1600632.39099923
 1270603.35658280 480687.299168083 1022011.16953730
 1415027.28304799 -597612.888030504 728393.179738562
 401017.867930319 46049.6950466809 -1651382.47998056
 -1477574.39385673 443167.884427503 714406.142772430
 -426908.055275056 -1607849.11471529 -350101.037774147
 1420402.42271927 918455.796369110 -169987.963248048
 -995078.386160167 -753648.552417571 -1154050.63356673
 678874.083604248 1292620.57963310 870782.415830435
 1121054.10534575 -1272647.02960714 -116650.036088961
 228755.700073346 -1541941.09187631 678298.237405389
 -1457322.98323832 -113152.331475515 867989.788192820
 1638120.44835068 322636.067946165 320105.239500413
 -601915.682300800 1549252.56941996 357091.007372110
 -346626.477647415 -1571920.10510936 -546733.269654170
 -691027.984378606 1373695.90287326 -724872.327541102
 682018.507095498 -1508328.01244965 -387036.642759986
 772889.294864082 724046.191037712 -1329811.73521980
 209984.629359455 1686678.01766788 31995.6270248456
 591202.867510013 918461.701002482 1302653.93456573
 618954.415604855 -1348204.23600161 830205.257409616
 1292990.03142227 766177.268994942 794448.973262654
 -545752.360157024 -1511766.34492166 553820.259421085
 958461.704348073 -61047.7182853795 1402720.33470337
 739276.113706217 669674.969952249 -1376592.26436984
 -1351631.24601861 -646290.396014509 -803368.968037469
 -1091854.03469335 585943.868253081 -1163840.43158006
 -1045567.56196170 760032.976374589 -1104145.98137957
 1472066.02701558 290471.970808570 799154.331954186
 -864565.140243316 999244.144474628 -1069597.24102544
 667826.774004940 817167.743680674 -1332758.14708070
 551604.208826254 1365829.99911154 -848670.260072866
 1541622.54785836 599037.174819497 -393134.052352339
 -1587531.83176043 561396.835594431 -233615.659004109
 -182866.188954229 1452284.78406395 864539.682671465
 1333512.79326831 260429.876669622 1021723.98891657
 297561.544772784 -32793.7322728128 1673434.10333244
 1343234.43179435 -1041819.50242948 -18258.8499003278
 -1327072.80492321 262944.125747149 -1029435.84412450
 -1453074.35882984 392170.795301554 790428.349076490
 -167106.865520878 890789.907441807 -1438251.93769924
 -802690.825196534 1108577.58214577 -1008336.84030146
 -56246.9898144533 -1679479.95181549 -257261.282719854
 1205363.57161325 743217.100229873 940599.278201741
 -998152.858278521 -751652.803992650 1152696.37535667
 976552.279109895 1341084.95029651 371263.790657640
 1125142.97472868 1014633.03600080 771085.655860943
 -1211693.79027024 108800.127504112 1187417.65646113
 -219061.442651609 291717.970077225 1660395.34758365
 -1636834.11931253 -92879.7241068220 -449608.076778227
 -696212.274523791 -110064.256702108 -1546988.79381818
 -389719.449545182 -1653946.49095567 -50791.2955299801
 -179766.038860981 -1395811.28909038 953622.051192234
 29786.6129028601 1039913.49123044 -1344504.62567025
 760028.291371448 567856.384234532 -1410636.77933020
 1605723.97553361 -477233.832542551 -289652.176710793
 -1067394.97022128 1295621.14951765 -268391.159446191
 776076.392212263 -1152589.85986746 -979409.030171519
 -408341.254893069 160317.989022852 1642423.68527369
 478222.373965393 -530281.468429471 -1542758.86815769
 -129048.984610198 -645168.784652442 -1567515.10323862
 971379.195076301 1116622.50283486 -836406.985585209
 -1535284.28251687 -599888.050473386 415976.560344320
 -1019008.15862998 -553436.181413871 1243113.33584173
 1112421.16631317 1253162.30049230 286536.904016382
 853002.554143388 639059.544250025 1324382.70206455
 -1610259.05782493 310650.232529853 447841.712798085
 -510157.533207627 1505253.56992341 603283.500142633
 977519.193395315 -980559.950486135 -986386.541902514
 -154849.679544032 -1688007.50602964 -129043.544327844
 -383517.577550989 1625668.70135546 -316410.399864923
 -1603702.51877552 -533178.137765536 184008.979894853
 84025.7314910574 -1380840.96414564 988037.402219535
 1319800.40036560 -945484.025950459 -504169.475342671
 885426.270144161 -1144606.61270372 -892130.047859347
 933815.021665732 413282.748608895 1359112.53213768
 857608.496623855 -1148273.67797603 914316.808872049
 -1111658.17913571 743545.581524128 -1049455.12574699
 -495579.182381671 1512484.82710456 597319.781832493
 -371210.619929449 -1554978.85686443 578137.899083070
 1558333.08868736 -623227.859404992 -270527.299848960
 -399949.898990742 -1533934.56510281 -614072.331472555
 -883352.651033621 1342054.82756613 -555497.015039976
 1319983.68913158 -26668.3554504375 -1070949.04605409
 1066812.30335753 834176.278461738 1027648.50306742
 1662706.75937515 97812.3389154852 340351.257797096
 -1470808.43025553 195399.302482115 829784.112934659
 700399.921942654 -60620.0833722603 1547825.94461867
 609838.622567658 1160793.10834334 1081968.67516919
 657093.340642948 1273560.77707667 -914478.697824377
 -465448.666977614 -1424889.12564315 801903.060246481
 -1196631.53370784 -806432.360588020 -898743.467476929
 1037686.76139290 656462.998799322 1175696.60900988
 -1421949.69356090 -815431.728953256 -450699.638782167
 -1380571.96741683 -984042.996010892 125221.502884796
 -1335531.71710712 -834775.993020828 639925.053484390
 -737048.934373393 -413537.049391214 -1475041.00862310
 505958.211212495 -1622932.09095834 9885.17294937287
 459001.565457429 1564608.23485327 -480955.958833009
 -1263634.53937761 -1099993.01433567 -288518.837001452
 1102174.21979335 714255.498944352 -1079375.31537954
 1457812.65911770 816444.020880567 -313371.044744952
 -623046.175167741 1438843.64756147 -656918.885008531
 -691561.651888459 48903.5725241249 -1552208.40167540
 590340.318144891 1332506.29757095 875171.569297324
 -1639269.70635243 -437253.480792135 -107722.900863262
 -762902.226743619 -802287.823126147 1290083.11410278
 1103705.92337457 -278346.344759264 -1262678.32287842
 -1615345.06175825 -75834.8801558015 524318.035551900
 -1397840.20789003 -853363.932390067 455864.839729639
 1022578.96284693 168995.847102278 -1347506.09215880
 -635260.582999845 1555803.33142092 256748.876582292
 1263267.30280369 1070894.79464461 -383849.007384632
 1557811.77255435 -421769.525312490 534165.656710310
 -1480716.61043711 771390.435246364 -320054.864025017
 457459.790533043 1048531.47299879 -1257502.40165833
 458768.359974540 1624052.41524699 -204903.256237368
 -994218.084286407 1231522.68879723 620388.803779939
 -1533273.21733066 -631348.569912917 374796.243691701
 -375674.254879160 681159.615066883 1511585.40381380
 -1495797.01118896 -741404.562187299 320796.783783795
 1215465.16844174 968000.563346245 -689651.603105683
 1086638.79732727 1305409.20344624 -71574.6861746690
 1195610.15925495 -202341.224274093 -1191458.92755295
 269333.949018862 450291.492073454 -1617002.41065750
 -637123.983526071 -1246504.15644455 -964520.822783175
 12721.0556940981 1444931.01413970 895551.527897330
 999910.594613766 -730390.709947663 1164778.18214512
 -900232.629782499 572494.962135845 -1323567.42578682
 -825410.682795784 -611709.855719971 1354440.20065179
 -1145467.83539540 -1061401.23191835 671811.627583788
 -180905.619934121 419769.667614227 -1637396.28154802
 27945.7216004797 1680236.81282277 256949.974663205
 408996.976148280 1037347.05055264 1283211.81813888
 -1354226.85764861 -880260.498452784 530293.383785631
 -1321087.21481987 890255.165033978 593442.762168189
 278160.018132570 1660848.30320362 -232830.234415829
 -1290665.80493673 -755641.702573084 -808200.097314692
 -984297.735985619 1386054.63137089 3244.34722141339
 -863292.978202741 -1031058.75299597 1040020.71212848
 1579205.65699263 464569.681181054 424599.227801706
 -960012.279850264 382944.028368340 -1349714.89347704
 922082.355873778 -812171.372587797 -1174794.36095647
 -479353.157554645 1290262.57029550 -997718.923363104
 -1419640.00200026 -580325.903153497 -733378.559033311
 -167378.346054178 -590256.184020214 -1585428.05781217
 -1399894.49419522 749881.253615712 -606608.201887870
 -67300.7435265296 5300.31842314913 -1698659.03481110
 567086.422087339 -1580282.44322388 -266684.063120663
 489169.006053189 -1582772.24718823 -381504.517729038
 146228.109490945 -1683382.81232517 -186653.816363059
 -1325915.98357499 856279.805381593 -631452.056292492
 1507245.37163290 615607.557599671 489120.358109717
 -1529716.20021671 -187075.492590587 -717614.873638041
 1543698.07202222 -706335.875878638 -89921.5929666079
 1663902.96874977 336728.637393470 89670.1474562625
 1038111.94078518 293724.066382966 1313792.13394916
 -87851.7408110943 679117.171650152 1555982.62805417
 -1338552.11836368 679043.526044621 -798234.374204089
 188300.388841476 1401414.62700241 943705.466120576
 1325926.16878503 929834.976321410 -517036.470416181
 -400814.666186236 -856976.680559432 1412422.94386184
 -549527.233322716 258246.584553928 -1587869.17641313
 -581276.836639848 73297.8818953559 1595852.33016580
 -599927.718488009 1059600.45768168 1186310.92158445
 997906.448554271 1375982.19950720 -29252.4626850468
 -17576.8949244706 1335272.94888373 1052015.78160413
 -81307.7021038115 -952357.572113643 -1405846.40427623
 -1620435.48791420 -489754.510444218 155978.681260682
 -1261235.06725620 961228.288645836 -612638.786096873
 1205885.35062710 805119.378020579 -887481.441089731
 199332.014197374 -1314500.32889061 -1059412.87204871
 1556094.66912587 639117.605262087 -245149.071713756
 333300.622744112 1092288.32146983 -1259292.22885675
 235014.190837604 -1201406.96561641 1179571.80072826
 -498372.013142153 1618490.34459752 -148708.913523105
 166414.759690437 1158214.93153338 1233225.16197582
 1068097.09627302 549650.709492348 -1202935.03169860
 761431.751922735 1383252.85816598 -629946.995817519
 -350467.371195775 -1486961.84046491 -745732.597335208
 -491461.369174113 -873040.288871637 -1373414.13150456
 796833.177468968 -1003002.63127014 -1117605.74844168
 -1589312.41187788 603345.887879872 -7732.85389484516
 1522590.43714703 -709211.553455788 262178.056200840
 -807808.845760472 842805.659172791 1235768.38023047
 1547688.94290709 -490215.495615873 504328.963932484
 -1698395.84559680 40933.5741584986 -61449.1185140229
 -1055973.31941341 816635.603302519 1052628.44351925
 -73169.4068463011 1520889.08742568 756004.379386290
 805120.834596032 270053.693491836 -1472702.08947051
 1565797.55112577 -598949.249313343 282024.512472816
 628752.639588849 1243629.24767365 -973681.884673179
 443783.995445925 1479226.67467308 -710594.265612720
 -781407.796625979 944623.125917085 1177747.42850697
 1235192.63084504 -1137512.79230930 -265261.780207429
 -663834.031424701 31467.7555113020 1564715.36040441
 496980.592931207 426459.209118586 1568802.99375278
 -1343070.29227356 180282.236684265 1026479.66621280
 -605785.945374485 -1090286.15049216 1155118.82437770
 -1463519.43682402 -698693.845018391 -509840.925163634
 -336757.832598398 -774898.799110395 -1475169.82524755
 1653781.38717965 -74894.9419942048 386520.207857011
 814232.018887572 1375933.23036748 577783.666253026
 -757444.264331624 -118145.125999037 1517339.74957285
 -1127417.51221891 530081.815612429 1156694.86983351
 -492073.217214552 -1604553.82328034 270686.122837089
 -344627.115202213 30995.3489540147 1664413.24189957
 -671974.635626608 -969176.395635033 -1224396.66906537
 1645257.54222699 -311382.525267105 -293544.788241058
 -1376099.48387696 989709.205203240 -129714.685404340
 942160.195676382 983967.135952888 -1016928.13956922
 495808.102927756 1618687.12916843 155004.202961231
 -1575283.65464911 -360083.565504249 528035.257581434
 1567893.38313823 151373.372823069 639371.911418947
 1273908.95485706 252922.794016203 1096898.37040722
 -255150.350261022 1594008.95799277 532948.159393075
 1306665.47470559 -828734.653310747 704147.862039160
 911135.231853569 -783097.230448495 1202743.24647409
 46880.3802112951 -1648441.28852789 -412848.093404546
 480433.779069197 1305067.69119826 -977743.169405817
 1531122.87114570 79935.5440095853 -734352.137777542
 -637018.085535312 1497198.57870887 492548.855052022
 -568085.659068709 196390.345799029 1590191.66015843
 -1212018.29473202 202590.893331444 -1174720.64048183
 -1395919.93995308 497560.831004381 832971.032324420
 96359.7695567413 1697004.21912892 -29857.5797684880
 1145962.25370494 465638.772435929 1166169.39022076
 -769776.636834637 -1458731.15964608 -411761.257601003
 -251463.954562536 1621567.18791897 -444168.588061254
 -1425991.25937202 682014.115049367 -625624.228325630
 -236189.508231282 -654073.206843229 1551258.44277840
 -529812.670068394 -1102535.13240267 1180556.99415692
 -1660406.74384786 162533.254828100 326546.146906602
 -1391383.06923363 634294.617300478 742780.918652100
 11225.7728396516 255383.543498036 -1680670.46970384
 1001366.86673061 -1270211.76047889 523284.322099598
 219505.588839281 1606293.97251340 -511504.614187827
 -60162.6876524317 -216663.342406314 -1685063.03949489
 -199665.561500071 -954570.316314253 -1392454.37080091
 -757984.902156387 -1307737.68377085 777998.096751288
 252009.262769418 1616269.29456019 462779.535999935
 372655.268996057 1583710.00908548 492940.825669709
 906309.871861417 1432886.92620629 -124247.627235474
 -713906.631004280 -1432978.12444540 -571761.328763214
 -644844.433859434 1424799.62898385 666424.544391935
 -1565478.42512425 646538.447733121 -145826.390181433
 377821.792453556 -1524219.49844986 651157.134409538
 -610050.804460323 -585502.611047950 -1474796.49729491
 -277716.924827932 1249455.27565007 -1118809.55654407
 -105970.564983727 1283176.95968030 -1110057.26406463
 -1617758.85301015 -519108.572442512 58159.9821524622
 -140323.972399999 -570395.971052028 -1595292.33025722
 659099.240768339 -997683.163486461 -1208394.18076812
 762287.192462208 1270449.58357099 -833592.281521592
 400073.015244340 1514005.10283955 -661611.767616863
 1679452.47972638 263511.760180845 959.472402031511
 1634955.61844762 212202.960153548 414596.224547025
 -1508423.85249062 595495.274708290 509943.976371394
 -744624.866836297 1379371.75930464 657926.559216027
 1416878.22502473 -523761.013236197 -779827.222187425
 49502.0927836032 645181.163270331 -1572033.97207923
 -1069487.32950082 680837.870172240 -1132544.32433196
 -1640287.43782818 250880.727542817 -369480.692121578
 465798.389845106 -149517.245693134 1628089.81731907
 -856893.891974058 1468057.35415851 23247.8557866314
 1310452.38096530 852668.451667423 -667586.001016694
 -1456605.79857563 297097.895223011 -824640.763126537
 1418364.33891195 -292996.227318394 890166.171498361
 1364544.07022523 712.566098235727 1013912.70465594
 259426.404860502 1673681.19223092 146591.975338498
 -106310.336354621 -1362766.83771235 -1010724.81834357
 -1229090.27559681 -1134157.21414914 -304999.193485513
 1648135.76753699 94622.4574248510 -405826.418947970
 -713683.834121111 992150.835129941 1181648.04627484
 748144.128437230 -1334421.57175771 741349.736570112
 1455695.52151966 -569162.693899442 -668583.858989074
 -519303.875438667 -1567813.40199925 402845.654644464
 -332245.883209058 -426723.409831817 1611682.29021484
 -1333759.87103472 -295869.433664267 1011704.44530042
 -1396468.40280230 -597041.901938822 -763817.365149599
 402308.123735643 -1556298.37816014 553248.164671537
 -777032.552587874 1369017.99309285 -641880.165456763
 539480.717070666 -58582.1071469668 1611064.45948979
 860697.085668788 1444720.26285725 248965.637811582
 199990.208977684 550545.095132069 1595902.25720095
 -52233.7496299786 -1115070.62921517 1282142.39741976
 -1175262.71112364 1210086.52220199 210827.343168283
 445653.366688934 -683561.968770337 1491353.78485779
 -423990.563134520 259729.285764003 -1625660.69660597
 1192212.60168042 1152597.26757133 -374364.329472667
 988268.632773253 785922.371011224 -1138266.72455123
 253574.555164529 846929.528714922 1452036.61054528
 -1322166.57024019 -1055274.35000580 168141.627086046
 -727711.594270461 -1536370.91487497 497.484276942205
 -878734.208468192 -1425536.37866138 292698.178984396
 -1047387.91166243 559461.444316533 -1216544.88401649
 -1395394.13296754 -809617.435969352 -536092.175893467
 1184559.26122176 -1218160.89152743 -53883.1978158619
 -5772.01365463744 1596563.72587853 583910.055631201
 1619004.90657201 -57278.8593589078 -515307.912578765
 -199250.369882204 1512824.57629788 749440.518954608
 -665261.201504331 -831010.628115967 -1325461.75717420
 -633535.687313544 -1336106.81657165 838719.922030553
 1060772.58678353 -1013410.36458965 858930.120598205
 1238970.71552508 541777.989044539 -1030256.36453172
 -997086.724922556 90254.4588776799 1373925.83338254
 1564994.53920304 17533.4389380530 -663690.191869417
 -915252.280630584 -1132099.56970902 877874.607825721
 -1366303.97739163 271391.268957687 -974453.806240887
 1320874.49591548 -158675.936652118 -1058353.68056600
 340059.573706852 89776.7722631327 1663219.65401216
 -1656911.40151716 100404.379976282 366829.071917734
 -916923.843940380 -1424162.59315435 144953.691479247
 -766834.698127147 1517191.80878679 9672.69861565406
 -1261763.04090972 725675.552926867 878264.778115653
 -1349795.55659704 1032977.75307426 -31763.4545432670
 -684483.209317708 -29268.9480792950 -1555836.13045862
 709438.169772667 62686.5063426922 1543621.67812977
 868648.657962126 -1455725.50755128 127721.398697141
 -891499.494201048 -1057959.06787776 -987902.455981605
 -1205552.33817250 -825660.014133190 868866.561094618
 871338.274450111 986565.292064974 -1075852.46942648
 1127439.83836570 -1145286.78098721 554254.093500331
 443645.579666590 1457348.02501099 -754529.875908749
 -1127189.96055786 1239594.94316036 -287831.842763827
 -1436668.67560930 -683286.884785039 -599251.324240312
 1488131.96447123 577527.454545234 584743.786256430
 -1079548.99677131 1313108.90565960 -17859.6037888391
 1284756.00662410 1032170.44814545 417164.439302436
 694279.395995571 173754.640535363 -1542006.95367707
 -905323.684538796 49203.9094274990 1438043.11531684
 35053.3514541940 1614857.51939593 530100.419356804
 -330528.845119488 -671924.398811547 1526194.05215252
 -789148.098945114 -352384.022633792 1463923.07807608
 -1526534.37159020 -632531.359815256 399495.796228182
 1319477.07524605 -600957.431591684 887598.114754006
 -997080.787204755 781702.770296326 -1133477.25283668
 -491716.161074746 997042.588358544 -1286126.46887357
 -230389.411024240 1684170.07393856 22178.3979965693
 -431137.478556810 1086847.55916351 1234051.39995221
 -1569338.71906704 608719.034190718 -237985.550508736
 1346924.88226099 1008075.57423542 -244083.998197643
 823644.041978851 940610.833602664 -1151894.85276306
 1435050.73586894 -469952.188366537 780880.481335992