# OOMMF OVF 2.0
#
# Segment count: 1
#
# Begin: Segment
# Begin: Header
#
# Title: Oxs_TimeDriver::Magnetization
# Desc: Oxs vector field output
# Desc:  MIF source file: /home/martin/PhD/repos/ubermag/oommfc/docs/ipynb/thetaevolve/drive-1/thetaevolve.mif
# Desc:  Iteration: 1172, State id: 2353
# Desc:  Stage: 22, Stage iteration: 50
# Desc:  Stage simulation time: 1e-11 s
# Desc:  Total simulation time: 2.3e-10 s
# meshunit: m
# meshtype: rectangular
# xbase: 5.0000000000000003e-10
# ybase: 5.0000000000000003e-10
# zbase: 5.0000000000000003e-10
# xnodes: 100
# ynodes: 100
# znodes: 1
# xstepsize: 1.0000000000000001e-09
# ystepsize: 1.0000000000000001e-09
# zstepsize: 1.0000000000000001e-09
# xmin: 0
# ymin: 0
# zmin: 0
# xmax: 1.0000000000000001e-07
# ymax: 1.0000000000000001e-07
# zmax: 1.0000000000000001e-09
# valuedim: 3
# valuelabels: Magnetization_x Magnetization_y Magnetization_z
# valueunits: A/m A/m A/m
#
# End: Header
#
# Begin: Data Text
 1318674.10757900 -922016.344758257 -548620.504537845
 -1521849.84417601 724326.045340940 222091.944523465
 850589.879548802 1102112.11013950 975625.826581588
 223615.974421279 909271.188786253 1418880.47460907
 196031.911289512 763566.332488549 -1506166.63940155
 -1606458.44360779 76332.8040949536 550876.185708030
 1089396.75183459 -99436.1947641456 1301279.04780761
 1626718.07168539 -458313.368537480 183676.812559401
 1598169.97776601 381312.432867164 -436409.842588739
 -407172.323971119 -1588705.19471663 -447466.761751494
 1258190.63393062 1132359.48582682 -157220.620617321
 205828.146334597 1590391.61340565 -564171.330524181
 408603.196670206 -1649438.99859043 -48932.7865535769
 497508.899025694 1599624.72730816 289284.681887115
 -716893.083344439 1476321.42997768 -443327.579157405
 506589.847312406 1176596.84331417 -1117580.68831881
 -685360.572787571 1502890.34211217 -401996.896572917
 1224586.42202956 -839529.762319774 827996.300209207
 -1256322.41238709 970488.503405944 -608116.815168583
 -1403171.11660174 958236.604099312 -53790.5948920903
 575441.210229344 -1103364.29633753 -1158211.82999371
 166359.949880807 1515516.40820421 -752020.201550101
 1402203.62039131 640479.841939465 -716666.295447671
 -1086670.29385064 -691434.537799545 1109534.11502328
 -791956.540417214 -1498185.09421124 -135078.723615767
 -20156.7355042416 -1577516.48243175 633273.600957724
 -797482.637326034 1479924.70453843 -252674.320144216
 1641630.16428498 320706.909611309 -303640.382421767
 184587.446759252 -1231673.37840783 1157111.99260069
 -456960.809205794 -623474.871639835 1514089.13320309
 -749046.703056574 -419783.504912321 -1467211.92935568
 35007.5907491158 -1642293.48798736 437774.562879403
 -303054.056278870 -110557.037022973 -1669112.15337305
 -374842.868516556 1277083.38612271 1057615.64323322
 -1226141.92580591 925048.493770916 728602.265953884
 1360069.04124590 -163577.423953018 1006704.83728715
 -749652.103663888 272767.011325747 -1501206.14207534
 -877351.078234441 130322.052182193 1450265.92328300
 1604692.29879026 85413.6682553340 -554677.502228447
 1417566.41782243 854966.811566779 -386700.403647869
 315905.685183570 -1495184.60920757 -744732.557672546
 1506672.01908183 -447794.705013278 647625.917546504
 1378482.95651959 960368.950231358 259761.848654744
 438166.911318764 -989457.288764655 -1311100.31330020
 824382.509581269 -1026374.82605780 -1075615.26315468
 -902946.556898796 -1365286.59749134 -458998.934742912
 883567.212660662 -1395186.98135507 -403438.059394986
 -1554620.18093893 668423.666586303 -162375.783184353
 -822076.036515721 1288156.58964193 -744878.238874432
 1306157.70261965 156087.381510716 -1076842.04283659
 -1455458.16940163 -469874.938913165 -742198.800122578
 -449793.781303910 108992.458727593 1635789.16680630
 405579.287839043 1642883.17023608 -162604.828436975
 681160.541860806 -1439049.88141079 595949.456769192
 -1156345.83154739 -995947.815638143 748967.466842581
 -1230193.64617220 -630422.910868580 -989540.573382184
 1384401.38800517 488587.733632421 -857155.075487094
 -558130.413287129 -1462500.39619907 663010.582782426
 -1331448.65647214 725797.906340494 -768415.170549282
 -1112218.40145370 -1270097.22322133 199557.688484459
 -295291.872529026 -1322646.12891609 -1026357.60224279
 1149373.08080068 799908.813577529 963891.804660540
 74616.7217559427 -1428435.51583949 918697.078433787
 589242.055639053 -1247821.52442349 992842.003065793
 -563245.371675794 -1597511.32091218 -143917.444540992
 -88840.3314017346 -1475027.54992633 840476.723339058
 -1645012.78561551 406052.254523650 -138038.044602836
 -326341.602653599 -1389324.51399066 -923730.779611729
 -114129.037229438 -1139761.76460846 -1256151.93459935
 -1083114.16858327 -1219613.60925097 -478963.821122222
 -572604.336001447 -1407936.16837503 -761472.271441178
 1122358.29522607 -1168510.03363063 514680.637329369
 1664404.10340669 -325251.314252890 -118197.136766300
 1087052.42632389 -175134.075535434 1295239.39023244
 1059946.11899302 -446226.700927845 -1251956.85077829
 164698.847112671 -304022.065409863 1664465.34163487
 -6445.28567876543 1492286.82912267 -814271.746973662
 867067.647337383 -1376382.68614414 -493725.020860246
 1104443.64038327 506279.656548616 1189069.02851852
 -116779.720780780 898139.551877600 -1438647.92154560
 1018529.71579152 -1206499.15376051 -630045.244426798
 -1680670.54742275 -200224.267285604 158923.735847317
 1672158.31452644 25680.5093398737 305331.103230797
 858214.157563815 1294314.99378475 691532.469679486
 -931187.233791424 -1375219.79085071 -362851.019671182
 -915734.287418933 -1244464.12608078 709041.433023023
 148350.975254413 -1505308.36013582 775911.547179367
 1544474.50392783 -262141.383490030 660212.391415684
 -487862.324385895 -1587898.28939819 -361343.845901770
 -47950.3771714920 1428330.82455255 920636.636769439
 -1223129.26907240 758979.410845546 904381.028688106
 -617781.763313838 738241.374592286 -1401194.26410364
 -851032.054693061 428529.982711432 1407873.03966027
 -522981.983067427 1405183.76295555 -801216.848121004
 -189994.533039325 -1526282.17331321 724130.378344577
 1386197.35409892 784195.983597392 594553.239667288
 -1235673.53598813 729925.499794648 -911218.786685241
 72356.9348324381 1306334.03448733 1085474.94873060
 -735099.829427170 1468274.38179640 -440225.601864014
 1373315.44289042 488144.947921401 -875053.829279955
 -1007289.12249706 496446.797756149 1276287.27201080
 824715.473092762 -1356585.93812812 -607880.729184945
 -838278.117512872 1134967.74741947 -948228.880606713
 85203.4228577106 -1386244.12681001 980340.551858420
 -1327730.37098284 260380.753949267 -1029239.48862380
 -916165.267579748 1074540.54134058 946574.787059120
 608150.555102674 -1439598.86118415 669109.872297222
 1484403.33468947 -532307.451369663 -634976.784756026
 -1462692.48465545 -786206.135309160 363882.684576642
 -261217.185687040 -1100945.83519381 1268733.16732524
 1271751.47350649 722705.148296261 866224.831241951
 1514811.63260935 646155.236239368 421697.911296503
 1187742.78409207 400876.294243995 -1148287.97587993
 803263.130419503 902749.636347721 -1195747.22971986
 357856.668794868 -1521573.57827231 -668395.429743975
 422767.136013076 1199478.47392263 1128059.98923087
 -1204412.78840942 -258207.049169686 -1171630.89532281
 -1191371.72473547 277022.672834107 1180631.97154603
 533145.185976029 -360820.264051893 -1573392.81418218
 65347.1494870554 -1347802.26805888 -1034001.35216026
 158303.313921175 1691185.97472680 -69498.6308421904
 -382557.612760467 641931.324634497 1526949.19606777
 -134440.833061047 1428200.32302772 912233.248522206
 -1534423.68851991 -66556.7172172280 -728775.786852314
 -169381.558585498 -1622319.69617479 478945.394606194
 -902048.273539222 -664023.147137149 1278820.61770640
 3718.40484217391 1626586.82325693 -494167.461365425
 816048.929712044 1433623.15516236 -410839.133114339
 302392.729590204 -967164.522740469 -1364973.04846769
 882379.624897823 -1408325.72002176 357805.623055811
 -1489847.66627823 -569631.352809890 -588110.579042143
 304974.096238636 -1480013.07305703 778814.550585516
 -711254.998883002 -1432403.53159563 576486.295792295
 -1659824.65971967 -341910.674647778 -134458.876792869
 -191866.571680630 397172.194872420 1641779.96890319
 -1307498.61651628 -1045632.26835797 -295127.984400984
 589766.818748884 -855193.654800685 -1345666.71664698
 371316.221947490 -547154.427078183 -1566124.61070229
 -103870.795102515 -497095.643346936 -1622376.89187509
 -1148600.15803342 -361968.638561510 -1199873.48569069
 -1522581.83995423 62248.0649470037 -753571.309865189
 -124902.844536125 -1507930.43988953 774948.429175353
 416767.406302449 47164.5333908847 -1647446.64127065
 -1560865.82068252 518056.409587594 430482.806056523
 1365183.72810189 78384.7130845592 1010014.46785701
 -1254691.29437551 259827.348516454 1117246.39394415
 521222.537276587 235838.197935888 -1600845.84236875
 1478322.74555769 -582061.737072305 -604785.907741864
 934581.637193207 102465.216504331 -1416353.78448606
 -703697.359425073 1486551.24223935 430087.700980670
 999237.046615269 -870913.320552838 -1064441.31484795
 -1434879.88214438 392134.281979769 -823013.018556531
 1684684.80742623 -207618.113813597 -93444.1996259307
 -536632.271748483 138469.655165642 -1607125.37143695
 1657325.33489860 283714.831513297 250556.637674236
 -396291.602653415 -362885.716902836 1612844.35769057
 1533715.79943783 633336.919562386 -369594.633178055
 1414635.06899120 548431.762602865 -766831.287408505
 351518.364473647 -1078450.71937908 -1266245.98135927
 399338.802229664 606857.165688246 1536962.23163961
 830119.754769907 1192041.66553912 883140.906288163
 -371504.605350298 560028.938597215 1561522.30728133
 1016540.71142762 422284.250622628 1295500.28702672
 -600504.821078203 1447004.64632468 -659978.418871868
 -667499.265692602 -344826.699385080 -1524971.89406593
 -1138465.00476408 1262353.93179969 -18973.2389800341
 -1213743.42075661 -1041461.82465613 576354.210840838
 -1437360.91261370 -644211.374154601 639519.594930572
 -555272.850493838 -1555212.36131686 403715.955483155
 -69933.2150268894 1684271.78882806 219858.788302662
 1068341.46962468 205630.198847405 -1306278.19609842
 922728.653170900 135794.600128781 1421313.35714306
 1572140.74766359 -438503.197223053 -475487.555632029
 1384063.20047715 -839039.764165020 519982.048954437
 -1620372.30922141 455309.650084695 -238928.236188658
 -1174014.30456394 -1221574.99708839 -139445.111666753
 -1245863.17448900 224853.391894337 1134577.41146465
 719503.931216836 1440370.91499429 -545569.170868404
 919405.300785799 -114560.729435532 1425331.44642156
 1620815.81648050 33386.0139488412 -511704.468535569
 469124.287283252 479187.273653088 1562146.58718377
 -593962.554244985 -1549806.85789252 -367841.252966677
 192934.385110570 -1652893.76034042 -347445.736870815
 -204056.352492671 -1194922.02102643 1191856.68965421
 -319091.494328941 -1643254.30925293 -296472.415864630
 -818057.328889328 487982.771855401 -1408067.83253605
 1147075.11314539 1093659.76289118 614920.326412541
 890446.941314950 884220.089700454 1146847.45178815
 275620.799932669 -1288607.70684008 1074022.04470710
 426545.964230096 -1600822.79389092 381346.198300543
 1323036.65101930 -1049262.14610040 196527.272459637
 -1030880.55994276 -942557.456562738 968953.410753109
 523400.878223132 955212.183606737 1305228.41103176
 9543.12450079548 -1546067.06570918 706813.665051942
 -692053.716762015 883075.018481268 -1277200.12717279
 1234642.07284543 -211312.636063404 1149350.21720965
 401423.892866916 -1060939.40236764 -1266201.58061004
 -1245704.91231913 -873315.882372333 758642.630637260
 1020217.06954549 -247534.659533331 -1337117.69240323
 987204.703333668 -1383636.06596163 -31274.7611680747
 -342790.181408996 -1198934.97963214 1155443.55385457
 -1026497.64967320 1352107.07095385 90050.2298274650
 571207.988914529 -1530755.34536214 469584.397148648
 207066.449398449 1161145.02788465 -1224281.71176093
 -1298334.75929957 -1080589.75462679 191448.779024924
 1125515.04981585 -647567.325276355 1097211.20659263
 398648.955323189 -1273686.35589362 1052996.71282971
 -143481.453564582 1630967.44872448 457556.831097673
 1534898.84616054 -553025.915171369 -477752.937410027
 1479906.48396196 -796302.009294214 -256475.941798330
 -1133856.00092117 359903.482847667 -1214429.92890046
 -941239.517169112 1002025.93489953 1000006.09853539
 -653148.186071431 -1331501.26052231 -830964.403725631
 618686.588004568 -920297.914855244 -1288518.00675674
 -191761.074846941 1669169.87645654 259035.931298370
 551405.340766895 331654.766538104 1573517.48195128
 989367.146632323 -335720.064549948 1341061.03046177
 -1085319.31191242 841496.596245615 1001980.77311743
 333943.314256934 -1571267.06066796 556418.625607521
 -1379237.93227620 -985021.454557149 132043.402836290
 -1188955.65288556 1200994.22240282 -184383.657699141
 -1461559.00772023 -528956.433060436 -688513.150837256
 160662.083218815 334662.289682471 1658972.22607260
 1612610.60603400 -516981.395593014 -149054.587038952
 1041971.97646418 697431.629060959 1147991.08143257
 22830.6312927713 -338175.588354564 1665867.95206457
 22861.3860259229 469131.232162222 -1633827.78897867
 727181.217234427 -1234882.99333263 -914478.796954475
 -372262.787117255 -550008.155588026 -1564899.81983332
 -35399.8618238703 -1069391.44547753 -1321040.79653973
 -718940.157943201 -463356.760667703 -1469158.11322000
 1028674.05427487 1160768.19012427 696022.197101016
 176192.934015994 1629357.30203767 -451830.534934686
 -1189123.97974957 884123.492404636 833252.549328701
 881150.958792632 1229306.79724023 -776130.005912538
 -801604.317158245 -239855.627650645 1479831.00271537
 689687.418256431 -1498553.94444791 410691.296083065
 405367.666599938 -1469775.13744193 -751956.182388888
 1091138.03612447 -1118651.38158457 669355.565153057
 -1459248.22595203 527239.822839427 694703.378621481
 -272756.430482614 1479161.69382729 -792265.494101805
 -867607.204309559 975352.824631587 1089010.83856559
 -1279271.54719748 -1074433.15054355 -314734.353930440
 681839.391583398 1198296.23044712 -994575.883571180
 -497653.069170916 -1244672.89788246 1045528.95704597
 1383154.68786493 26227.9481619354 988025.912702939
 158463.578156706 -1674010.82714621 250154.042531894
 1616110.11627694 -183110.181787124 -494629.915586613
 -589079.614969504 1112399.64042156 -1142607.65235376
 1597267.13830725 332985.783033524 -477344.903797376
 -1392806.63439624 233958.529683938 -946230.989542161
 1209952.75274717 1156740.20352883 296591.364775884
 1303581.87805033 -476855.881935391 -981469.691372284
 -1345050.34359191 -995682.901173523 299090.510571562
 -515429.581870628 -1212951.79315866 -1073815.76334391
 565636.521956919 -1543902.77158868 431763.311212619
 -1329660.79223741 -885235.569033388 -581687.342912592
 -366956.063838819 608193.083608945 1544488.40081827
 -1225107.38733745 -1148752.20408116 263591.090725566
 -893741.474032534 -208485.994850544 -1430999.56937287
 121152.994327467 374675.949815475 1653765.36564150
 -865355.671180974 -1329850.41448526 -610456.744944551
 1209318.86706307 -1030972.36525225 603857.483063251
 -1050691.54126761 -905611.430312071 -982809.860754779
 -804202.233789232 -1256367.68723697 815352.072196566
 -490281.288012469 1476729.33142983 684758.892107020
 -1147722.38221357 1069208.60998741 -655382.546071226
 1020193.11788564 1006048.54528306 914916.568192204
 1218984.55194536 1184834.54749006 -15612.7253413759
 -504048.570741904 1623285.07613569 -29674.9040133198
 1205517.83152122 -827261.967242562 -867389.413953350
 -526819.080656350 -1138444.03777921 -1147347.73678313
 1222252.91221888 -622409.158202013 1004342.89879440
 1633360.03754874 -147407.877922888 447667.181358056
 1521755.06443209 -200017.524956673 -730927.160246136
 -148673.429072030 1503392.34867417 779556.064331449
 1148868.63218732 803995.250692528 -961089.227304053
 407176.314053814 749322.471519990 1470620.03350584
 1487897.14039038 64845.3463828425 819729.943744042
 91987.0010430998 -1024888.66438677 1353196.81393750
 -1645268.57996989 -53705.9624795820 424507.914364398
 -473713.797656688 -884464.285995470 -1372340.39680693
 -476043.482175079 -1028806.04649094 1266862.55046959
 467771.449500673 1634320.18919477 13689.0548402176
 -481537.002470489 896880.734995709 -1361516.45691313
 1367815.17896584 837727.485408396 -563288.821460164
 -1103663.68697267 897862.536032910 930467.265650138
 -639700.203627421 675938.390588315 1422635.21030794
 1363740.53977694 -767313.416041405 -664410.913314775
 -375420.423524960 1309596.20991996 1016866.39858126
 1372269.85620831 975604.350224218 234673.376345928
 1104114.06704221 1020962.87082314 -792822.138540595
 -710106.416290683 -1544149.11481450 36774.8386863802
 -1349782.12935615 -702654.357950540 757868.759432596
 -57784.0170498126 1679014.60762437 259944.137763409
 -50462.1316694152 733383.853146849 1532841.05412494
 -1660452.58929272 117300.767091090 -345163.336336503
 145103.780208896 -1593881.77748838 573136.783289606
 957196.373433267 -1401123.63457133 -103090.558887990
 193731.992579767 1611703.62147669 -504855.773038192
 694408.512336035 25690.0535203890 -1551495.03355485
 -1684676.26043902 153931.133849078 167842.496243167
 384544.406950771 -1626370.17955503 311521.489045328
 -628367.148197067 1083426.65177277 -1149496.15801669
 -1073432.03343247 1056063.38415476 -788970.087042999
 -139006.421476347 668055.668941077 -1557041.69436275
 288158.324802662 -1323249.86706436 -1027606.23254293
 380269.794965623 1362529.45010931 942819.378577689
 33909.8203195357 395600.543462308 -1652982.25462291
 1551964.44114407 489506.615472979 491721.106759288
 1365390.10484161 1000197.33613408 -159107.354923998
 1181250.76508875 291117.532713133 1187390.92641146
 521245.742378999 1576765.79602875 -363472.833270385
 -568137.238161931 1600785.64802503 -68595.8285235176
 -1207277.52532281 763298.671795572 921876.409550405
 372935.650837766 1516441.48929332 -671806.675974619
 -1456189.18890422 785275.164805167 390967.980349668
 1448745.97222664 375312.395762607 806396.746982541
 -655741.429812753 1189323.28340771 1022503.44976017
 -1694198.38019234 20425.1755262621 -138833.212014870
 1377548.24325200 -771394.430011849 630326.479580240
 -1145418.47521641 708197.678519287 1037531.95843444
 -203745.713551530 1400564.13266167 -941757.821582096
 509905.254796173 -1138637.66039224 -1154773.09869417
 125751.632348910 34937.7152422330 -1694982.56127172
 -1353093.57731664 806558.054206066 -639219.740167491
 185380.630118003 166320.035072894 1681657.41692843
 1620501.70103564 -378489.185992859 -347448.086808766
 744134.488211751 -472306.708180867 1453681.61468087
 1271760.68000282 1101110.33157920 245317.774505476
 -1392436.17512064 -573146.297938156 789065.789003167
 -100511.700310382 96614.3015220311 -1694273.61274445
 1333516.86466367 -837781.802404373 640198.737282156
 -1536665.83615418 344636.848929172 -640221.485391387
 -346466.417832025 -518699.752631841 -1581427.07322668
 1350935.32694826 -421002.996274206 942194.363988317
 -1276491.34035747 -804795.790563518 -782862.435861898
 -509068.078263336 -1534173.02649944 526462.549907221
 -1580072.44057650 -623761.170592102 65521.6345353606
 -369842.721654852 117481.141878065 1655117.68238454
 -689892.547422211 -1553670.10572785 12548.9274007751
 1612469.85501006 63590.1965442191 534693.607206326
 244636.856766754 856967.317983355 -1447673.93573957
 823726.663434102 1460392.60939292 280584.765050181
 1527981.83124448 -715558.942964642 -207958.944337813
 -963401.993182695 531204.630915067 -1296024.01197894
 -70795.1338557257 -1698152.50305075 -35582.6559550031
 1115492.28013507 -1275280.75811476 139053.805921708
 -1546495.14828813 -412278.003465161 -573044.155523864
 -1284100.71232372 -1087308.83705969 242579.581707953
 -1366324.25853297 -1005452.62144596 110557.887876786
 758932.925813369 1397008.68635245 -601986.332379855
 -731208.772308787 -1532859.61728408 75333.4255053552
 610312.136099851 -1378400.16778942 -785832.090186784
 1551492.16506839 415721.757674131 -556819.074680205
 -169309.077495599 1571695.49712040 -625386.041264960
 -382934.562178955 391476.903417579 -1609380.92295746
 -1347584.92048076 927951.080067099 -461434.367050362
 -964715.697634968 -1193885.29824376 730726.704982167
 -835135.405007247 -1478789.29490261 75703.8743053011
 -976507.464286488 301006.467744232 1358612.63006381
 47762.1693506973 -789202.672018245 -1504951.13464131
 1180109.04686241 1027490.87952177 664533.768903482
 -1590078.16711611 600673.635336348 -29027.6811420499
 544915.751128272 975511.176373703 1281188.81080905
 928650.387932868 1244661.33027829 -691683.908951202
 1179459.07837294 323315.688643539 -1180823.12304621
 1195509.80248240 -720357.287681318 970485.285953842
 -500.692330702524 -1391772.77568980 -976200.947631119
 -985308.867483595 1184127.35996755 -719033.261424308
 -1111541.59995561 -977247.243870625 -836339.103423597
 -765088.740259035 -1486486.25618827 308217.179424214
 344004.961452728 -92968.1573321704 -1662232.68774807
 346098.582889502 -1286081.31798611 1056508.69113746
 -639382.465938444 -1290630.65661111 903029.662007874
 31377.8009804802 1629956.60354193 -481930.393496484
 -645804.106913881 1485526.59793334 -515895.127255296
 -787977.867802211 1414972.45846194 -516666.063960122
 769711.909880262 -735909.997746328 -1325133.97473821
 191435.362983976 1654958.47227703 338326.701337132
 -393690.740094297 -1582005.46224824 481940.160788405
 -313423.228227724 -1615048.84229664 -428232.550144880
 459191.243884640 1555202.38356408 510381.178822535
 638023.373489824 1545992.48266447 -304685.769975586
 1654142.07283758 334544.588186657 204680.046373878
 293198.589702065 1674409.95112870 -19644.4027122392
 532326.227098543 -1408766.98051352 788672.544569570
 -605463.150319228 1459837.50981088 626329.640488683
 892328.300186843 -1435662.69831690 -180617.887672042
 1528005.85601182 436783.643933239 603670.566108690
 -1308432.74867613 827295.660783001 -702556.497259436
 1530906.12466158 -721312.236050235 161353.945095493
 -1357243.74409680 -1020690.19263043 77980.4448444929
 1061200.90950548 -449347.710960058 1249775.68560110
 745747.600645361 806935.031965834 1297195.57905429
 413946.749988792 -161672.289743717 -1640887.00369731
 445123.603137401 1623676.24859001 -235670.145955456
 -1079980.14870667 1286278.38607008 -262927.351046750
 1615207.54482366 -368899.792437473 -380811.672988505
 -188579.302458526 603461.509876160 1578059.58467424
 -798435.244453782 -1447701.12272943 395806.290579085
 -1679301.89172294 239301.052916130 -112606.227753978
 1620987.85810881 -507989.884874593 -65913.8887405101
 -1056180.90027049 1137104.67605061 693883.896345531
 -520049.503197881 -1550494.82426012 -464235.192726945
 624116.750756226 -457168.932971046 1513761.82015256
 1649003.75465038 -124683.705771602 -394005.825672698
 1574682.93573063 -567282.296174449 -297597.796305339
 -534428.147071306 1610775.51253051 -98938.3841085809
 -633680.270469102 1324016.07387438 857572.592227902
 612399.656793828 1585547.58754124 31709.7461509090
 -632328.322103750 1368426.65481329 -785855.828674681
 -888240.776150724 -1384801.19192491 -428198.531555755
 1348939.97583468 -351628.565439058 972994.498217945
 91514.2549226757 -1623644.63261858 -495381.921465485
 1338866.15826474 798265.741167518 -678387.217399981
 -484120.117959227 1212460.18565475 -1088837.91704238
 -106922.211632946 -721194.526525058 1535723.31348125
 -1150957.55477588 -1051073.81013378 678631.382088380
 -769456.636009491 1512629.63361693 99438.8093496075
 -1286455.60946751 855623.896429542 709182.425563617
 -1437799.88333283 761517.084550571 -492770.966500372
 1595490.20348632 -54861.1698201745 -584295.526788574
 -1466526.80881560 -827933.209668425 -232003.705473125
 -481487.417117074 -1402022.36959045 -832167.736893170
 -1559407.03471711 -11504.2464390999 676843.669091073
 53057.2413088830 1627984.35697480 486674.287989438
 -551503.392386016 1025137.61376306 -1238925.69633328
 -124629.845423042 1428728.97976930 912798.391758663
 579661.164447755 14043.8041130039 1598059.98197724
 -1414589.59995666 143653.835612551 931826.077767878
 1223300.06684061 1176362.52946155 98529.9231025559
 1400676.36009106 -862796.097233536 -428589.114281539
 131723.205105453 480915.750054614 1625228.91882533
 1351139.37519256 983188.183188972 -312671.369398979
 184075.695876103 -207491.370432180 -1677218.96882426
 265413.206716000 695573.617701786 -1528310.56139058
 136188.032461216 -1325649.57344236 -1055512.21132037
 -30021.0156153405 -1015451.93824437 1363068.63353875
 1164939.15288002 1066906.05818059 628194.423013077
 746809.955310597 870765.525802348 1254608.42087208
 -939714.824215139 -854975.522299390 1129580.85386536
 52799.1907862072 1699179.80570566 483.046993015983
 1477202.19058904 -810931.951860265 -224194.240717857
 67484.3219322559 724996.077230453 1536172.69676746
 1573695.55161379 38251.0625228681 -641887.191838914
 -547364.201198297 1600714.25136355 167649.386304218
 682684.394075578 -356453.706924301 -1515547.02101439
 720656.582498858 -735900.990810166 1352443.64829951
 -5838.14931154312 1159281.30768758 1243395.65933728
 113519.464862972 526559.981389468 -1612404.39006359
 1402509.74842163 858859.069581333 -430496.810882720
 1281942.55948491 -990209.837979791 515856.327817465
 661823.264464277 -1466340.23672461 -549396.283911939
 1120168.10809581 986273.233142572 813933.977169860
 -398480.463602983 -1045053.65107032 1280264.10810869
 -446993.648893370 -1449390.51319978 -767765.470762700
 -1337262.33553019 146216.252831675 1039398.98661689
 -1411814.30015231 70737.4067242152 -944339.240514438
 763006.195039085 1032646.01003489 -1114209.92828596
 -747064.019426042 1475354.71693296 393984.530283432
 332267.102842685 -1462815.42777179 799855.984938147
 -1251779.76728312 -627945.594708172 -963707.291820093
 1190965.75306003 -689352.376468115 -998195.309594229
 1027792.71865635 -1325008.26499582 279276.252427177
 911387.012231830 1318935.91144031 565492.506977985
 -743353.243476432 1398110.31178380 618638.433575601
 1081120.69647107 984396.088702819 -867261.425527790
 1584146.97400201 347656.661747523 -509522.531693014
 -1103316.39565196 501814.838159470 -1192004.52989431
 -1522529.19744345 397832.521322981 -643143.940273097
 -89779.4721304050 -420789.653080038 1644650.63592386
 291168.828683173 -1373125.20687910 959034.868728186
 -1675452.39885599 -195968.434931675 210845.041862834
 -816267.555905945 1446079.78676128 364088.625880834
 143019.085983504 -1205910.19460397 -1189674.80581655
 -789392.284437182 1281327.25012057 790607.550792111
 1326225.60703413 845791.062295254 644796.958885839
 47566.7724399012 1696508.10946892 97967.5286299142
 -1402728.52340482 579475.286558536 765872.758292425
 -175755.259480049 399373.462152496 -1643049.27695229
 1474146.47804695 11306.3871653189 846619.351816995
 -194850.453284387 -89610.5789264216 -1686417.28080548
 -414346.975295832 13203.8599479729 -1648678.93846730
 -1082369.81088395 1225063.52562871 -466577.914887965
 -578568.643825362 612035.504522577 1476709.47230181
 -1350612.39337744 -1031804.24139348 -35016.7145472129
 -1443228.82777229 841295.833415637 -315137.860887116
 1025951.70508065 1096755.96483384 796586.123682488
 1468058.91531763 796067.131216370 -317931.036159373
 136064.191553952 -44859.4631200228 1693952.23201404
 -580524.023136638 1547072.58277041 -399447.471141502
 936413.358242490 1288527.39800864 -593992.564840756
 1530396.11095472 -739147.486591040 -39353.9914216962
 729554.575402665 -1532051.56055295 102801.446080760
 169358.711325926 -1302722.56748245 1078995.61587152
 679992.487176085 -1286854.13514922 878417.128836543
 -1530047.12195446 112893.452274296 732264.209853560
 741736.811862178 -1017173.90459518 1142446.38812468
 -56573.5635804024 1280223.17609368 1117062.24146035
 69898.5010413090 1665340.39403599 334298.626297274
 -142983.259746313 -1479047.97821146 825816.484202706
 -17868.6795324426 -803687.001145426 1497921.19768753
 -497097.502617133 928879.085530996 -1334195.53190487
 -1112649.44445514 -837801.744468687 -974730.450288131
 -292315.675376783 -1606787.30321049 -472002.233226251
 -91910.5188400421 913474.858727813 1430774.66394913
 276061.524747984 602002.317836498 1565689.38294711
 -427924.773036900 1609527.52837473 -341030.092550865
 -1094901.42607737 745124.272955753 1065823.94654366
 -1133133.45847179 -330389.598165688 -1223458.73600857
 1109717.33321006 -952220.722528010 -867065.819855329
 -929545.670233062 -1010901.59758474 1002009.38466243
 1167825.08752675 1126114.15696416 507987.667594443
 -1202117.63971964 588485.312897152 -1048140.36120132
 639634.002729283 -125603.929612865 1570061.14384705
 -1320529.63053323 -613475.450454417 877410.603180477
 1226047.35660474 390633.170347671 1110951.66662941
 1530451.39422020 -722019.838585544 -162498.869591000
 -574011.111809132 -390472.500670754 1551786.86350271
 -1486016.59520888 811228.806022431 153826.210520957
 -511570.026558614 -1242204.65119882 -1041740.71268567
 433382.566711492 1272589.95618007 -1040525.99885834
 -753743.197637540 -362645.184955580 1479986.37218174
 1470085.50576575 807858.690040763 276066.917002148
 955675.512784572 -778453.416596857 -1170766.66866316
 -202502.585115574 -400999.974740055 -1639570.59112439
 302051.844818177 1578952.12517337 552878.711339521
 1533397.30406449 680226.834096566 -275652.248426734
 1178487.23730516 1200561.79108303 -244579.674749075
 349304.299687759 -1617200.86327412 390701.771233631
 -587694.355530294 -1257216.44543648 981846.298461164
 -568881.516274402 664160.231488256 1457828.86764901
 1336280.60761580 388299.345249096 976513.059917309
 877522.644959521 639953.146841272 -1307827.96171025
 -747754.470047779 1064702.22680003 -1094199.44286707
 238759.952913308 1663287.00952539 -257817.782220151
 -1645052.42901714 -218831.316241372 368667.005327117
 798935.337088863 -563485.133269115 -1390750.45631321
 -243665.029813680 -1453542.08137881 -847256.024414619
 -1176789.97949760 295048.471358952 -1190844.97047381
 512028.742215142 1156752.32298979 1135671.88501050
 -387868.446887812 1113669.30467713 -1224458.55288319