# OOMMF OVF 2.0
#
# Segment count: 1
#
# Begin: Segment
# Begin: Header
#
# Title: Oxs_TimeDriver::Magnetization
# Desc: Oxs vector field output
# Desc:  MIF source file: /home/martin/PhD/repos/ubermag/oommfc/docs/ipynb/thetaevolve/drive-1/thetaevolve.mif
# Desc:  Iteration: 866, State id: 1741
# Desc:  Stage: 16, Stage iteration: 50
# Desc:  Stage simulation time: 1e-11 s
# Desc:  Total simulation time: 1.7e-10 s
# meshunit: m
# meshtype: rectangular
# xbase: 5.0000000000000003e-10
# ybase: 5.0000000000000003e-10
# zbase: 5.0000000000000003e-10
# xnodes: 100
# ynodes: 100
# znodes: 1
# xstepsize: 1.0000000000000001e-09
# ystepsize: 1.0000000000000001e-09
# zstepsize: 1.0000000000000001e-09
# xmin: 0
# ymin: 0
# zmin: 0
# xmax: 1.0000000000000001e-07
# ymax: 1.0000000000000001e-07
# zmax: 1.0000000000000001e-09
# valuedim: 3
# valuelabels: Magnetization_x Magnetization_y Magnetization_z
# valueunits: A/m A/m A/m
#
# End: Header
#
# Begin: Data Text
 699374.038925588 1548981.09540191 39160.1808527286
 -1463896.79005645 854158.577948084 131982.240396726
 1604484.31606178 379136.770539557 414590.627892851
 45941.8456728091 945696.566760010 1411930.36316757
 1269435.56271505 1110001.96470602 215473.874200821
 -1063835.13660051 1298494.98149164 -268636.529859978
 -337190.923723093 91470.6828145815 1663711.33167512
 936283.774080701 -93815.9276275964 1415828.82655940
 1526866.08564056 -590195.036864723 -458639.046507074
 -661432.897563253 1520934.57328534 373181.652558673
 -841105.660660292 1313529.78237959 -676151.446354314
 1641857.01354630 389358.620486118 206652.877361914
 813696.822579955 -1224402.00457406 -853661.063958237
 -242985.648915751 -1610240.09018947 487939.367511576
 -792007.906199140 914568.682926768 -1194272.83345459
 1070396.49159047 831604.065677565 -1026004.88728824
 450434.074291101 1588334.21610217 405343.758650142
 363239.766373783 -416920.618799934 -1607555.30845573
 1122495.13371156 1067965.90918386 -699609.527961827
 -306726.231865057 414968.838366662 1619790.07339547
 1138000.81903050 1207069.07714018 371400.563943934
 1363573.01701540 938224.205232857 -387819.504386639
 1641190.37293878 -44521.8365236726 -441035.107271087
 -1271832.73236302 679121.635032178 -900686.019499161
 1262436.72241514 -336911.064255388 1087540.55403926
 -1116686.85325832 -455164.692869059 1198263.56621798
 -1575118.53037166 -639483.053843071 -7939.71834275183
 1410804.00690179 -939068.670266265 133349.490565923
 971312.425285575 -1394509.42087153 43539.0352028944
 -1379670.63222173 -687736.823522854 716607.987783824
 -299869.670946718 -996242.247816959 -1344462.55586049
 170422.948862932 -1493279.72760996 794400.197387932
 -256208.967665221 1148602.80490328 -1226812.35788373
 170967.730101247 1434356.68092802 896320.783615537
 -101593.130345149 -1176637.38569858 1222785.05815334
 -681413.519523002 42129.3542926763 1556888.15684305
 650060.684487598 -881205.280686978 -1300345.47708403
 1038342.80351048 -60142.4529686257 1344703.35306673
 1204.18119352811 257565.114262121 -1680374.58974563
 1251580.17764607 1131786.05177200 -206415.580656543
 263217.833595778 -1006492.81473157 1344503.10002278
 1107215.78762121 424104.369310452 1218281.03636810
 1105913.13801426 1285472.52511952 120484.514898392
 1204717.24385984 -1135951.74642993 -385058.426903701
 1308332.21918139 182394.411097836 -1070046.29948997
 -788600.490623657 -1393224.79141743 -571868.819545160
 1691347.11854813 -150787.914312427 81289.1719495245
 -633124.792088430 1497720.80214470 495969.148703858
 -1687455.80734351 45776.7479885396 200991.013745034
 800094.807879582 327047.151984978 -1463860.80580862
 -1258447.65840775 -925078.387689853 671222.368278338
 -1036570.34076265 1309441.84164671 317622.404745124
 -55216.7390779222 1216295.30386779 1186413.43785156
 1307180.96235336 1044064.82405799 -302004.262926351
 40911.2284870573 141948.831453388 1693569.24884479
 1509955.84195694 -760618.495862207 -177462.275124637
 -515641.237946288 445416.809097325 -1557471.66263235
 186018.007645763 -1609857.46103261 513572.055303964
 -1460892.46256290 -657999.244900308 -568181.490843832
 254274.148154719 250712.351866256 1662073.39615370
 1317251.24829123 -419779.688599625 -989259.400720763
 930119.382029189 1407598.77375050 208671.098405421
 317080.749910699 -1286882.25696165 1064609.71945280
 -182251.196863081 -558179.717113593 1595374.53428496
 -1681742.54183460 -201978.064939276 -144730.384740354
 751906.527285386 -901593.427112139 -1229538.88365266
 -1190619.08548979 -942211.403997734 764633.156123945
 -577871.420199716 -386851.489220516 -1551260.95387083
 -154848.204745720 1521379.45381055 -742581.033295444
 -509886.461372272 -831502.576155683 -1392343.08356659
 -1174569.29705132 -722412.569356567 -994236.916464083
 978021.867650217 -197374.177111638 1376414.42182487
 1329289.97982142 1036859.22833781 218886.020926636
 443067.873936519 1485675.01324002 697467.285340060
 -304979.761948608 -1626929.06622745 -387413.420348389
 852865.739428998 -1452173.16313960 231976.582364187
 -268448.606220921 1463016.20019600 -823115.389105377
 -1036547.29564361 -513002.921197225 -1245952.52988909
 910058.931918569 611869.490764668 1299002.87401784
 -849218.634331596 -594116.704065931 -1347535.91902176
 1038568.08249568 603165.895541375 -1203148.88541569
 -1694717.35535021 -39008.9588324693 128106.934260337
 1497238.12403998 494389.997797062 635497.073163573
 -94074.6570291560 -1679727.04498451 244268.322245150
 -728642.560003627 -1359172.36906618 -715353.402814579
 -1507907.05933073 -6368.23506865216 784968.627400267
 1309633.09241235 -1052994.86185293 257027.205116109
 1201307.74396749 -678824.436285005 -993004.072995718
 -18141.3705399580 -1621379.10187810 -510686.497440344
 -695377.521082062 -318538.441846844 1518217.16636308
 1640738.60312713 -341245.163389209 285532.090441543
 958399.406281648 1219468.33650869 695965.196178445
 1145174.35783681 72360.0674419461 1254328.39033199
 -1037793.49473833 127656.570413824 -1340406.08112205
 -745656.529603810 -1398924.25279370 614009.181368481
 1310915.78237644 -808971.170539679 719072.636631397
 -1422331.57979196 245889.893168489 -898059.595775298
 -139285.296662887 1685887.64735358 168470.907382109
 -1515154.12483882 770900.359342972 -4540.25866933818
 869939.768913583 -1381758.76609357 -473230.927546119
 -1479506.47350897 -399936.045067291 735602.987147941
 -833715.835263001 -1360718.28983826 -585972.389905334
 108737.142092818 741139.505066606 -1526069.61438825
 612740.995764967 -551639.631189085 1486688.32961402
 -332125.952925836 1276966.26032919 -1071937.27492517
 -911584.314690710 1404304.43083186 -294861.158438815
 561299.038544392 -871925.708111873 -1347103.91167970
 1219389.92103270 51205.8550446746 1183412.93760589
 -1500046.15008201 -749167.995817630 280372.719191333
 359488.409686871 -1243723.24199807 1101780.64087849
 679571.774474097 103240.980203907 1554838.73869436
 1387555.34958785 -301966.688369390 934615.573883383
 -268851.837966567 693436.749064411 -1528680.53048012
 -323338.562774733 737449.991849248 -1497203.95515919
 780509.085610084 -1492769.70649101 229006.922740028
 -937653.628465156 1391806.26403842 -271442.436640879
 -1078606.00226005 1304098.31266234 -161048.696982703
 -40863.9031944015 -74666.2469857913 1697867.80786278
 909202.154368276 1251426.05514261 -705183.856169639
 517288.960994326 -1540807.10396284 498322.786164820
 1563865.06145647 -54938.5274498982 -664310.038880492
 -22755.9870738733 -1010752.81779795 1366697.07922634
 -1533769.39167434 230897.898639962 695871.837026457
 28571.1663790926 51860.2104859692 -1698968.57152217
 -1088505.82336726 -255161.283307749 -1280643.50699025
 -98297.8782402655 -182621.712286094 1687301.64384889
 1229873.30476214 946094.813738045 694489.926241854
 -613786.175336725 1564221.67228178 -257831.516555874
 -679315.403130101 -42808.5313704630 -1557786.25385901
 903689.438707844 425153.186337884 -1375714.42040659
 -987158.979468264 1253202.80613851 -587366.900618113
 -972327.685039931 -54696.5662953578 1393408.46794484
 -1370557.92252507 -24729.7936265194 1005464.77726023
 942047.210402729 144123.156692907 -1407755.50756419
 -683033.543816256 1224006.16368370 961911.684764318
 -71226.0914132182 -1692809.11168908 -139011.349480642
 978758.312348175 1262710.16602952 581029.433518704
 714617.669500134 -873393.482711606 -1271418.66070744
 1161442.51694327 530372.356344189 -1122388.72208446
 1321840.06803237 903568.792183884 -571228.739066526
 -101005.060610413 -1637194.93801674 446531.871945829
 532799.933869281 1438892.98513608 -731922.952089269
 -554556.965223432 -690113.944387712 1451278.51085993
 1697595.09506728 -89592.2128560681 -12005.3570987941
 593800.457241634 1389915.59197602 -778161.721084744
 -1682263.54801176 -242585.745149944 -33786.2587590524
 292239.117547692 48371.4063181990 -1673994.17717797
 1656718.79652045 -128605.866291425 358808.250199551
 1261101.76052594 546111.596942928 -1000691.99721134
 650770.569151434 -792399.689282198 1355949.99861787
 865911.457937613 -876261.350411795 -1171479.14739736
 -772366.320932177 -277324.134757992 1488805.42401297
 720891.588093240 11202.0321288189 1539542.08539182
 1592355.37531494 -71422.7221383538 591018.742061494
 844839.038000995 1101084.82366079 -981763.317186706
 567536.005462664 1258316.25642784 992241.443053513
 1588693.01918289 -420854.401581111 -434667.762169406
 -527343.651204719 1309915.23833968 -946589.003686163
 -1084498.95503782 -812437.771871192 -1026550.96481317
 -350475.778137321 2784.62293921279 1663477.97545207
 -201349.435644603 1611209.88710664 503449.207423551
 276018.336388332 -1359684.73257212 982380.428341134
 -770339.854367797 549086.559251699 1412473.17115113
 1110716.30841868 682328.325255328 -1091209.11779871
 -414256.370911257 -1222229.54420666 1106592.33705454
 1086879.12119294 1306695.52623649 -35221.8345404422
 -998240.412276531 1060919.65989067 876336.439134788
 -1437348.05120809 886029.268264548 -197440.409913717
 -912241.676950924 -1387379.31329559 364683.100613717
 1601044.43815661 -472866.537486179 -321020.162565549
 876224.761038393 1430224.90669198 -276923.968664929
 434931.768865026 919215.948948665 1362305.54415313
 -934323.610850831 -1342160.67218009 464374.978072405
 648839.249753658 105319.875225288 -1567774.01173181
 -612574.652875398 -55068.3743057981 -1584840.61306047
 -1595365.63653247 514711.177971914 282632.073625989
 1135571.17808302 978556.744710587 801813.442696337
 471642.986943186 1512463.82561273 -616446.322951337
 -288620.503592840 -1618190.87776230 433770.086604289
 968586.180318431 492089.289584161 1307550.74179655
 -4252.37924530775 949063.036228205 1410411.73794607
 119735.228335908 -1523444.15531047 744836.479199112
 -438974.330136187 1151284.43185044 -1171258.16729716
 1067274.85682397 -1320692.13898421 81833.0863202168
 567902.591857776 -1073934.93460366 -1189180.55920833
 1637356.52870893 -439817.242905379 124997.562925676
 1266508.43112697 -488915.775202902 1023189.99146886
 1593463.70140593 -544764.363990622 232605.288047384
 957802.908664990 1188987.52425373 747611.032102837
 -1047863.58553212 -233696.202435793 -1318092.55785884
 182320.847607174 -1064559.06131531 1312811.14921350
 -805506.826339710 910575.519265186 1188280.68083053
 -600033.069170351 797400.037142764 1376267.95961641
 272263.386786612 -1677899.75996705 22913.8324602426
 -1176957.45188156 870441.428157113 864351.130391040
 1072061.24393878 193641.861156996 -1305062.26627395
 841263.800667741 1122824.14983189 959969.346510798
 -1191436.10159657 -1049556.64548436 -607380.328733149
 -310459.695793924 -485995.729166465 -1599194.46238395
 813294.063851085 -1135096.90477754 -969591.554454262
 1234296.05192359 1121500.40631191 -329772.792765064
 -1607992.20669571 441872.747709776 -330317.329302124
 1199376.19130912 1042801.43706408 -603375.434184983
 197580.197029930 1481974.34249109 -809144.062537514
 -530864.960244643 -1229035.97793893 -1047689.34275201
 136903.435773567 -56072.0830973708 1693550.52206024
 377520.919593667 -1504062.70932947 -696615.619745681
 -222959.186025101 -362390.780420689 1645892.50063092
 -980370.441663118 -1345418.07930648 -344563.475993215
 589307.218522448 -124424.505982085 1589728.13540821
 59859.3153231411 -1369706.06068922 -1005147.83473888
 -1586477.03870094 -559986.930201153 243936.966609357
 -140005.991915869 -1669924.41202608 285920.933733462
 432171.304190672 -1558121.08291026 -524868.226152723
 -586821.914877751 -1533528.53468069 440375.150910340
 76633.8624283054 1408250.13624188 949188.498088792
 222482.192731606 758380.737502509 1505111.40149242
 -805042.096428805 401093.207126476 1442578.06103327
 10660.9567260531 -1557371.85247264 -681527.150690006
 -1661219.92992818 -354283.978992263 -69506.8819529285
 -943490.141766024 870532.769640104 -1114450.11076004
 1230371.21259743 -926159.028420555 720011.203584093
 -1491735.60616640 -666128.916194408 -470103.337900309
 -879760.945352548 -170695.780167754 1444605.00818228
 -555454.140422896 743653.581233174 -1424236.65484572
 -1457089.58462572 59705.3633019879 873684.847051977
 -848674.835715142 -1466505.24105894 138251.224842834
 284264.880097253 -1672351.69076306 -111504.709968803
 550667.314814285 1443980.62241223 708297.586112805
 -368801.423053923 -1095063.09518662 -1246925.14928271
 1562892.59524563 267903.048406199 612857.807636518
 -1600106.58277963 549076.266930081 167851.651285914
 -544277.576028047 1530410.21821258 501603.911690849
 148211.893914629 156178.588280978 1686310.01985542
 1575304.27829809 84478.9213978175 633466.449478746
 1672535.88433109 268749.120321607 142820.257495875
 1479152.54635839 425077.352621827 -722092.091695723
 374690.003427492 896684.924992935 1394834.59471793
 1248527.39569424 -958688.945749731 641946.140652187
 -383903.793126428 -1552585.50664102 -576277.816848250
 1126540.23645171 318230.844219129 -1232735.26170176
 1441989.01513926 512447.292350598 740314.428321001
 -90562.4341350733 -1096953.93325084 1295565.71189926
 1584518.02922656 615776.163658221 11060.3492860284
 -1258762.60736578 989333.706759765 571607.833192212
 797135.711153834 -1270715.11452244 -799911.092389337
 159063.890414103 -1533279.80679126 716764.754192388
 1320720.25339971 653687.901321982 -847578.987425403
 -62827.2544777190 1695701.95954158 103187.210940320
 959139.252636420 -706382.227216197 -1212879.23682662
 -1462935.06673908 -809396.788763937 307730.123393443
 796655.685312331 -358149.701839671 1458447.29425910
 -1190086.43229515 -822826.500699449 892552.986333974
 -946958.434542320 -973306.042404651 -1022714.55991775
 -631062.007093073 814782.214598060 -1351995.07616646
 649762.688353028 -1546451.91078381 276215.380559014
 -1231958.91544873 -599355.675895358 -1006503.85216273
 -1635009.04819190 -249475.135708086 -393074.508196677
 805385.290292330 -1497054.42260836 -13512.5841155139
 -928170.908638095 1368266.35975349 -395406.035771907
 885328.213470540 832768.180154749 1188566.83133714
 1671195.83799006 214386.674193580 226147.794623133
 662549.365295553 -1552913.79968885 -198713.535730209
 -1267920.52683139 287867.807627704 -1095221.28493343
 265674.965997770 815133.791214504 -1467982.87280961
 981496.074703163 1302956.92536264 478506.746025411
 -22974.8512269387 1505766.21859989 -788758.677375073
 -1223811.72795739 386943.952573553 1114701.40938311
 352950.253928793 774347.167496289 1471669.99780592
 -901313.437337487 1005589.39239728 1032678.10162362
 1517584.65834327 638517.172676672 -423358.742626319
 24079.4790264094 -1070772.31383592 -1320176.81793474
 701889.511311204 1474048.71757171 -473847.541026140
 1117816.19308887 384696.655339648 1221677.30675445
 389477.488886887 -384110.603493776 -1609585.76346028
 989810.090158590 1336699.83774081 -351439.225477086
 614229.799711067 1235681.33422242 -992881.359177021
 -86985.6402550111 1661859.84963745 -347354.773326105
 118717.903997834 -1646034.49208577 408015.330758890
 -1418750.87760984 -591687.913257114 -725983.030508802
 -723629.687988868 -350460.353618701 1497844.32275273
 -79737.5797512500 -458123.781558110 -1635164.98224073
 -859500.078519204 -796797.028820621 -1231411.42998111
 1652784.86687782 157300.164985323 -365457.031558110
 -834455.187035516 -1458984.76278386 -255045.099529586
 -628397.344828510 1045986.49762342 -1183650.71866745
 377974.134351098 -295888.361925838 1630823.60512668
 -168155.964564873 1341932.27015002 1030020.07451859
 58774.1843086255 -1168458.03980940 -1233390.20770542
 944076.164272151 1212419.66515719 727157.996307060
 1623388.35125771 352990.750656668 360565.931490525
 912605.102947677 1298914.21812147 -608254.699970129
 -1373485.92366099 -744532.044978958 -670230.148161491
 -1646734.95478842 -20854.9410208956 421697.830339441
 -1354871.44472210 -732335.916378124 719727.360782727
 1106349.42541028 -136383.073560523 1283507.15079446
 -1680082.18831608 153176.454912415 -209429.735623953
 -911932.397358041 -1431039.22983176 102498.904049471
 166305.963951560 545395.240171955 1601526.25902666
 -1698408.45846488 -10162.3747203390 72838.4126336101
 951165.111269208 195796.841492029 -1395330.97434479
 118593.297950606 800906.539120874 -1494819.16808510
 934509.714753960 -1405966.10054793 199877.255185601
 -1214776.38119824 425129.010355243 1110668.11795301
 -926520.049000885 210774.685453647 1409657.62891963
 1374235.97762653 -382417.575586502 -924787.692218820
 19479.7227380195 -1390067.28825292 -978434.195299415
 757791.556959167 -249074.799819614 1501237.38972097
 -697507.954438452 1309742.67263322 -829491.883612298
 1488373.61909155 492401.537320410 -657483.608949164
 657412.130424457 1044467.35175547 -1169143.80718870
 775883.848115616 1403254.73875409 564694.955172700
 1092000.17559916 1029865.93200067 798067.527591364
 1104654.36465674 1197750.92477976 -484903.554156954
 -570413.983624295 443185.484359045 -1538900.42359449
 72480.7394063789 1694272.14604275 119115.228072600
 -1694942.64375369 129983.360673216 -16545.7043779416
 240606.238259145 1681492.49251328 -68495.5161470242
 243386.035789694 1617143.02996818 464340.024344150
 756811.709875747 -327895.928333627 -1486512.79711181
 1269309.44500301 -969659.004060913 -581906.305748390
 328313.481635825 1658817.37040759 -174743.209911570
 1353476.74098752 1026412.64559532 67659.3863985113
 -957684.417545684 -1404218.07471621 -31814.3840184936
 -380465.748956090 -450027.579022505 -1594591.16766349
 437470.703646397 1641688.38757199 -58979.8403049161
 367464.611492436 830736.984907224 1436957.13965587
 1150327.64155306 264084.761041768 -1223521.78405800
 1482532.18407017 345560.146741059 -756760.535559590
 495344.983579058 -181493.041898984 1616073.52029087
 876645.221008884 -548622.178286997 1349261.59879169
 113055.189780483 614353.123711949 -1581072.02981049
 -811841.387651838 -582724.147455293 -1375262.20382443
 -1441064.88890821 -817034.032834174 381821.129780283
 133043.989929249 -1607207.22718901 -537758.519797790
 1395985.75995064 -779371.943057786 577756.983851663
 -1672892.54382243 -18969.7275675402 301779.201170880
 1689872.56252942 -129045.576986517 132958.495292599
 -1682251.02065416 -242003.165986858 38288.0028255922
 -288811.739760820 -1247530.84308155 1118147.83214768
 227244.373167032 -1421491.58794028 -904279.636107627
 -893531.062974492 -71869.9968785751 1444450.39480363
 -640519.969705996 1492392.51030345 502492.550788548
 1671400.05411953 -92041.0557567986 -296564.163621334
 790082.077675606 1498388.43242018 143535.417668256
 -813008.629381533 1455007.00753099 -334621.542323394
 376624.957312593 -1136666.44166598 -1206707.52128248
 1437517.79690280 -778061.028200326 467079.886083277
 1287537.49595700 160790.160765672 -1098359.55893583
 -1386013.37385580 940070.842396382 -291948.178225206
 1186991.75735920 -381233.843893467 1155729.77993627
 -21068.4944842712 369133.792675705 -1659305.98794948
 -621000.899931758 -553564.970334120 -1482539.61360327
 -1547022.59874853 522280.683109192 -473227.183298183
 567953.608010028 1115409.60593075 -1150343.47485688
 -711524.799274555 1096284.44455576 -1087148.96708886
 -938630.180423949 1334666.74327195 -477114.314185969
 807801.759165277 363465.758300614 -1450982.06757783
 -831609.329174698 -339031.020465726 -1443427.82666525
 -1692497.72923826 -111317.964765006 114279.251152255
 1256415.81090580 1016732.45285650 526948.222707246
 807348.801861581 143710.869926819 -1489139.04589113
 -846216.176642817 -920151.235277330 -1152058.97705179
 -898288.098840378 767765.658843688 1222135.17443123
 1528244.99785741 47134.8734493329 743132.242759467
 891965.874674747 -108220.946684433 -1443151.10266196
 -1689450.73621779 -95647.4521941362 163118.897684881
 -232978.928181657 -1471923.73727359 818022.817942067
 -435741.428588759 -1334371.02077216 -958949.105184890
 25635.4514923199 1660793.18208555 362089.533078404
 287450.618766151 -1287884.82198340 -1071785.81212653
 -1446096.42818942 -214217.275314322 867707.369644120
 -165529.980857775 66142.4114297869 -1690628.58335220
 -237241.216526599 -289225.104777126 1658332.12715295
 -1036806.63095442 -773239.354792648 -1103237.46773249
 -457813.022862949 1519102.14368786 -610521.017770906
 -552595.287107490 -653097.487066447 1469048.03224880
 928047.628334997 -983722.106173851 1030057.48255458
 1316214.81850402 -297992.688221150 -1033817.63832756
 -951713.870123139 778094.815592361 -1174227.05102698
 610728.522984091 -1546837.34676010 -352568.991662423
 -1196093.15893705 -263530.551720229 1178945.63210269
 1261766.85440150 1053825.84207498 -432892.018531979
 943703.703393599 322384.130629532 1376768.60529264
 1594289.77857129 569689.388250357 153928.888965161
 -639803.900011410 1503605.88020749 -468850.004303772
 1253333.68948203 -298607.902784095 -1109048.23303779
 -1593726.38657243 -132567.074578885 576595.330782677
 -980965.101316661 -972275.404087717 991154.886284106
 1600904.25064948 -566633.207242557 77668.4537147204
 -1322147.15593454 -933298.882377042 520461.424322651
 1455763.96555031 -861427.676147209 -169391.957816354
 -420741.868111474 -734296.412763113 1474376.15913351
 364013.203393249 576008.682943276 -1557468.58232497
 -730076.122575862 156491.061619677 1527252.23944106
 -598309.301125772 -1569649.72363145 261200.546113687
 220478.969793161 -145162.404922839 -1679379.91534851
 257883.185380477 1575148.84465529 585151.587094421
 609001.099970464 -695198.949668873 1426820.26920494
 -690342.240853281 -1541011.40842361 -196752.203550447
 -621167.424950735 489995.039241757 1504678.00266321
 61681.3204991810 482874.360384441 1628811.76530156
 1585098.26245637 596718.601602702 146254.602864742
 -703085.908434101 -706501.591237113 1377144.04001209
 934908.906502067 -766850.571870305 1194941.64584104
 1483158.35945027 -481698.853238439 676910.256667426
 -147477.538578886 -212899.129514468 1680156.04521327
 987227.773089047 -807759.911233616 -1123790.57205758
 -60463.5885595213 -1362772.18609268 -1014493.03756639
 309248.751376183 1150063.69184624 1213144.14414333
 1061540.71624673 138649.497088962 -1320570.94648767
 -1120068.13987107 724505.691745533 -1053821.07811245
 167547.497041766 -1632785.92191248 442648.810502681
 647255.027486468 1361964.40831885 784929.219653710
 523383.483438845 1384647.57680753 -835955.033063655
 1688207.86369268 -25834.3264157003 -198208.971908067
 723945.549366255 -1079880.78211320 1095335.71930042
 -1532520.74111762 729753.065926090 -94024.6819498305
 -1247331.66494354 -1143615.56570877 -162194.807246674
 -766165.367098660 491395.146291782 -1435799.93051241
 311656.152373048 1576889.11671626 -553435.774295296
 -1308905.17348439 -481225.789044685 972208.304214746
 -1069584.16979723 -917836.927634274 950560.402073456
 -1214814.77332419 -894503.859837920 -783637.614748268
 861211.402884074 -1273063.67076174 -726377.181448513
 -1385826.74915614 915004.728110015 -363662.713045548
 1132844.48314360 -729604.012596083 1036504.39546333
 283567.526560294 1326207.28456171 -1025067.65447747
 -875888.240877298 289831.080135445 1427871.75001132
 1330044.07531936 -274106.755980600 1022667.22057258
 356890.650154380 879924.201530184 -1410093.06905390
 442945.216377501 1613091.92874485 302876.154073777
 1358911.06861229 -800882.452247108 633993.694988883
 -1473127.55442202 584466.161954369 615056.512796132
 707490.191966380 1051872.89241973 -1132705.18956343
 1670001.43895192 -180411.230226236 -261814.785500697
 -1377359.99273682 841174.094053626 -534140.050830397
 1627988.73312549 -31096.4820874818 -488554.698696299
 72313.4154117555 141379.826242252 1692566.84201340
 897600.013519086 -667506.202921149 -1280136.58833436
 -288792.036446804 1237487.85934675 -1129257.70205666
 -1136921.95146543 -696939.596810418 1054364.10915479
 951710.970104687 1035671.81668111 -954793.232859786
 669454.773557622 1231185.46017923 962295.520515485
 -507299.232975292 -6415.37848850166 1622530.84135296
 1237935.27661133 228003.424634999 1142598.21865604
 -634524.558786682 -1499306.47969952 489345.138146489
 1090698.19619388 -789176.673719664 -1038064.36335913
 521662.879553951 -1560455.45848048 -427605.662022782
 778336.949469290 -1476984.12703556 -320483.200146049
 -787032.218393416 1500960.13286930 133037.463699989
 1622595.60858091 100587.306157559 -497057.023744668
 1535859.35190889 -619693.105698131 383557.695665469
 -1579540.13877855 -286986.123967539 -559188.621698908
 1463187.23828883 -509602.893075479 699562.718473339
 1041415.95949309 323201.361310824 -1304221.48401255
 -454573.834584471 -1587201.84958754 405157.892156961
 1396955.41044017 917027.626547407 312371.434978876
 -1646251.82068175 305340.203928332 294316.670895552
 1301720.68126025 -237612.766092625 -1067269.15132462
 -739602.390646937 -189876.245758648 -1518859.87340700
 195304.088352392 -897894.945674619 -1430259.06031209
 -86247.5290533656 -1692479.50539121 -134441.390809928
 -458321.836583483 -1455765.00940788 -748791.914682850
 1631353.57772386 455624.830354898 145229.192697671
 1015622.44160047 -1090511.26654872 818105.270517075
 1084501.36920204 -331849.010487296 1266385.80789486
 -1163259.70971822 -1090245.75043721 -590077.157158176
 963403.143629092 -967277.983760211 1013028.96551795
 -819552.501401993 807454.221158774 -1251539.60312034
 -639206.672682142 -1263313.40622445 -940985.689185649
 1452061.72295118 -871159.284965911 -150327.153095283
 1173086.50073121 -1167139.76324587 389426.289370113
 931020.186870542 -1386399.83243856 -317957.412641807
 1063542.73273315 -911239.297278279 963597.321886222
 -1026134.32448150 -1347215.52667250 -148521.624060101
 1546654.26846597 383914.393844270 592005.331086803
 1699794.88874643 -21630.0118888018 -15148.5569349040
 441049.333775544 159111.358138342 -1634062.13495311
 -1520595.58995825 603593.823821351 -462021.154974778
 1254550.76382264 1147202.48376670 5370.49639740283
 -329833.280881426 -70839.0407179240 1666190.81654328
 158823.664980747 1674620.41902853 245807.842866721
 62959.0702431450 -1697194.55788726 -74610.9117486984
 -154242.950466816 1667795.63689416 -290975.644664779
 -415250.711136196 287680.762084421 -1623208.74382422
 -415098.933260077 -1456066.30108346 773022.510962962
 -342484.482307510 7724.72146455389 1665126.03368539
 592394.839654909 -907934.781897297 1309474.24020915
 -525823.291748387 1546138.55359818 -472192.163141476
 -435201.825644269 -1052466.39039683 1262106.91624797
 948339.934937299 -23215.0547249054 -1410713.44681946
 -762183.291635167 875398.242362688 -1242076.70746234
 519885.706243642 -1210777.78575990 1074121.03878190
 192742.589184601 -1022362.73890293 1344479.35068462
 -1542325.15970936 -653035.705473134 291165.707295192
 -26508.0231607932 1563402.63026299 667135.323899792
 -543700.578566502 -1024619.12446731 1242797.38116972
 1286746.44959135 451926.820975431 1014911.68233846
 -532448.429965359 845305.410994437 1375484.43523398
 -1382275.61461315 -295786.043036051 -944364.729323847
 329744.641512398 -1219242.55850010 -1137855.90253599
 1133601.74936784 -1099224.41488480 629803.746854020
 -1440332.38649429 891959.173777610 -140895.169291286
 -178732.726978445 1546193.05019830 683623.919875045
 -647067.262635510 -1213542.81062843 -999308.663225449
 -877906.750367061 645369.625680836 1304905.27775334
 206823.119537443 -1533328.00651288 704364.551683318
 1125591.10806019 1045010.78708116 -728695.486701997
 -1240153.45472853 574422.741249569 1010968.80419735
 561032.806454457 909841.382699157 1321904.25084797
 125162.109524437 -1656907.39388632 -359155.028398915
 -133391.068158033 -1489021.01194751 -809335.065911804
 -428527.527774478 1549337.81171144 553097.191405535
 841935.400957754 595360.445429954 -1351551.22752767
 -773101.034873935 1240203.74920664 868452.330488354
 -1680555.21916689 -200291.510237662 -160054.572748319
 -129906.426156252 178162.533075010 1685640.06604364
 -250775.859972898 -1674080.81376799 156731.927279541
 337049.037439656 -18333.3442909843 1666151.80426278
 717040.074851833 1526551.25123775 -213295.120433968
 921329.140882987 804707.775364932 -1180507.52239325
 1386738.89986704 -597185.735764682 -781232.628987510
 -764834.606673589 -1317374.35427103 754687.243262687
 39593.6019961288 -647739.198563608 1571262.63792058
 468070.670806590 -540749.078269033 -1542238.72389519
 -709841.978862763 -1109554.41987357 -1074715.47601364
 1266783.24771347 809452.552695918 -793754.853998749
 1484215.51089848 694416.580198711 -452647.688996094
 1674076.36308645 276388.201516687 105251.568243019
 1474782.62540957 -635041.913733416 558335.003015075
 -433818.953673432 -287853.332650996 -1618314.42381121
 368284.012639241 648451.105835260 1527703.52142533
 223396.689247121 753867.642398994 1507241.68499190
 1467324.36485046 492118.168062979 -703405.229564394
 225848.822967744 1508710.04012808 -750190.858369266
 -396475.298862737 1221808.94600307 -1113548.48877746
 269610.642190705 1413443.82825656 905255.017097927
 1050377.78507403 689583.688326239 -1145068.05274506
 -975860.830741271 -1173428.14992548 -748840.447617132
 778610.483363367 1129767.66610149 -1003688.56515767
 961521.541629904 1077158.05133234 897333.191981423
 -165203.229077634 -357289.836846054 1653799.22166775