# OOMMF OVF 2.0
#
# Segment count: 1
#
# Begin: Segment
# Begin: Header
#
# Title: Oxs_TimeDriver::Magnetization
# Desc: Oxs vector field output
# Desc:  MIF source file: /home/martin/PhD/repos/ubermag/oommfc/docs/ipynb/thetaevolve/drive-1/thetaevolve.mif
# Desc:  Iteration: 1937, State id: 3883
# Desc:  Stage: 37, Stage iteration: 50
# Desc:  Stage simulation time: 1e-11 s
# Desc:  Total simulation time: 3.8e-10 s
# meshunit: m
# meshtype: rectangular
# xbase: 5.0000000000000003e-10
# ybase: 5.0000000000000003e-10
# zbase: 5.0000000000000003e-10
# xnodes: 100
# ynodes: 100
# znodes: 1
# xstepsize: 1.0000000000000001e-09
# ystepsize: 1.0000000000000001e-09
# zstepsize: 1.0000000000000001e-09
# xmin: 0
# ymin: 0
# zmin: 0
# xmax: 1.0000000000000001e-07
# ymax: 1.0000000000000001e-07
# zmax: 1.0000000000000001e-09
# valuedim: 3
# valuelabels: Magnetization_x Magnetization_y Magnetization_z
# valueunits: A/m A/m A/m
#
# End: Header
#
# Begin: Data Text
 112984.394278311 -1614311.50316596 520800.247115560
 -1293796.94898660 567637.218057640 -945450.920708604
 -988306.889174483 1093496.20303844 -847062.894211971
 -123694.205397861 327857.790770586 -1663493.01548940
 698903.972628978 669657.823179584 -1397530.54954009
 256377.661854865 -1449755.54892320 -849987.848659151
 1022274.41126768 -936077.829929917 -984232.352842061
 -1500310.06927237 -799412.342647004 3098.78420613114
 409481.267526679 -1220390.82384142 -1110392.42100637
 -211401.761612768 219643.457765238 -1672443.13704471
 1531163.55789075 279335.767992198 -683746.800875543
 -636105.700852188 -389455.872440007 1527643.17193687
 -409863.005807293 -1050117.13109088 1272503.95970310
 -351842.740576825 -709120.855811454 1504444.84703050
 -1524079.80119382 -699847.326176475 -278198.633419822
 -655645.748475290 686973.652642611 -1410033.99004462
 -713424.755914567 -43303.9511129176 -1542449.31374300
 362694.432633176 -1045460.39814925 -1290529.07926886
 1549633.03472789 510115.280606363 477932.901328129
 1675678.14123213 135864.642897441 252276.764302978
 417462.611648314 1584635.19109834 452389.521329249
 -860000.928192408 130432.986844832 1460611.39234600
 1652534.06384992 186437.921539220 352664.244328509
 995795.004363353 906750.625481505 1037398.48297262
 -692239.054455764 932325.506901198 1241601.48222673
 -1297548.82110909 1098323.95587315 7179.47028519718
 1654487.62428118 -31818.8569580667 -389433.256723523
 558554.794475252 964549.024524412 -1283612.76125540
 1399117.78341436 -486447.338363348 834169.296445815
 327349.366105460 -393834.905411105 1621029.44445503
 1233443.99180022 -250296.304324127 -1142789.42904353
 -414571.766334879 -1403351.39023321 865294.820329178
 -593331.839334041 1551416.15217039 362029.351320160
 -473217.051133229 -374565.367948575 1589265.99650603
 251989.693900285 137158.828871730 1675615.90164052
 1474794.96507566 506149.410168699 -677342.295721565
 647838.013530579 870701.305337287 -1308504.92743004
 315231.068623174 54186.5377903820 1669638.64129248
 -259778.781940544 1471837.69518831 810067.147510771
 326347.807836007 689504.947056232 -1519236.66237542
 162869.054486773 -1346242.64600606 -1025233.83145758
 -462527.280521384 428432.814627627 -1578769.72295637
 710261.186173466 -1215476.30203836 -952967.159244547
 1125148.44790973 -1200539.84439058 427486.902953715
 1439683.24658283 829614.679882222 -359237.571020425
 -1495787.26333479 -787630.130470453 179608.575576236
 1040145.03347466 1058774.58254205 828911.752058628
 -1076235.92026835 326419.326159123 1274820.24906807
 537311.229674468 1260150.75175137 -1006636.34214456
 1474374.97962227 31660.0928417293 845704.474379254
 1037531.46451172 257018.905281822 1321918.96214401
 925966.865675642 -461171.961622396 1349038.83764856
 -1016576.04848671 1347460.69098416 -202293.904741631
 -454793.999320656 653947.008215413 1501837.45080086
 -1076855.89141150 -966801.777298478 -892006.565303672
 1623919.21761057 -487651.635578893 -122809.840779532
 1625889.41446289 -445830.817488435 218445.631943351
 -1496862.10532554 309218.093800189 744169.341015172
 -462900.273152841 1179214.61565510 -1133656.13275827
 548042.841857668 1461480.72109327 -673589.745587968
 1357303.70567934 -340201.587780056 -965396.048376551
 -70954.7502043294 -489827.369744990 1626356.22520779
 -1218947.17185108 -1184776.17780584 21753.1776998324
 1526959.80213704 -487536.405271685 566305.585521079
 -1218774.72617847 -327183.246599974 -1139095.82124284
 -361549.747840477 -1649071.50268892 199612.020819916
 -897126.450040611 104683.868666148 -1440210.20003284
 -869657.629112976 5137.62237982514 -1460708.46268579
 -596070.811692401 1580526.91840334 191400.751437382
 197585.547596644 164737.635985659 1680423.00111335
 831164.065465309 456511.004713891 1410944.36419523
 -791435.457672407 -1290639.57947666 773226.611173716
 879993.054851280 1424471.45713318 -294097.417918622
 970678.500231305 1238834.73085275 642706.588438063
 1514801.00230023 -447675.571108579 -628462.016722439
 396141.106811173 1397065.42752334 -883900.681475828
 220633.452770079 -1513700.00100430 -741642.222691184
 -669610.077983267 129814.198623983 -1557167.49815132
 -631054.435058194 1011716.80027220 1211692.78946455
 1228236.57953356 1171567.75254707 -94148.3185591280
 263216.978423415 -1679405.58846665 -17711.3437274579
 -300215.845698130 -1342658.76784614 -998567.914123845
 1474830.84723050 -669104.422739451 -516888.037710176
 -1611452.43328324 -530762.282245570 -107296.109020756
 460602.400540621 -64030.4287446097 1635159.17659750
 466353.240515988 -1173189.72755699 1138481.67232283
 -1069523.44189187 -155112.820189450 -1312272.69279546
 288817.660518021 1212483.20802752 1156057.45065901
 811301.753832735 -476769.368903048 -1415796.74851432
 1177451.02445951 24006.5577506225 1225982.36944265
 572083.540563236 1519817.22270604 502867.807860809
 1153928.35708047 1097760.70314791 594449.985574704
 -1557504.10847967 651092.760180811 -200646.878144333
 -738655.648859454 1392754.24652034 -636100.181738374
 -842817.552107400 -669813.603081264 1315677.89028584
 388530.910483679 -1531950.01275061 -626237.087716880
 -46647.4109356865 -772630.586630952 1513560.70101444
 -791915.958360730 225655.484690795 1487262.15480747
 782999.267469015 -429452.202361269 1446541.72184215
 1387654.91822591 -962165.806424432 -196598.038828145
 -431184.766502162 -819053.443002135 1425914.14700985
 -564281.692068423 932811.864368748 -1304395.72127836
 -282374.498138783 -832623.147888085 1454992.55544549
 156241.876676738 -1351202.32272919 -1019725.82541768
 -39584.4661029913 -1164681.00320287 -1237720.17468477
 -204634.922515379 1680982.05896688 149746.004683244
 1692048.28817529 131905.595669929 97844.2860571404
 -1228773.80132351 191383.452868059 -1159089.00398083
 -1298915.94997299 705382.965079696 -839792.967034810
 1194619.81173918 -182306.045990008 -1195678.89125623
 -682700.105281274 103305.835248497 -1553463.37924412
 285271.852931340 -112453.592718703 1672116.67039408
 -1298281.55311179 -373433.568770675 1031994.36944435
 -910630.261978744 -1309831.21429207 -587447.628333530
 352016.580835725 249020.915488169 -1644406.55267065
 -1053320.18011615 -836008.342521903 1040003.19681906
 -817682.840437241 -1490434.01357041 -1106.18574296297
 -919454.683841591 -665966.942606051 -1265342.29191856
 -205170.764589926 -1682678.01137394 -128451.031121670
 -37228.4528441132 1697056.19543088 -92813.3171937885
 -296423.100190235 611178.147291599 -1558394.88511315
 -284416.734023832 1671912.30180999 -117543.083435976
 -1412275.34210279 729145.998777510 603178.639007707
 1127177.29344562 -823821.032851814 -969943.428748074
 -1278522.50241429 -830978.051144606 -751568.818762605
 649000.307929045 -1325070.92885429 844384.766450240
 -929893.709275377 1406976.73981490 213808.659950725
 735203.440221589 -1004462.12408814 1157813.34538806
 -290347.074521039 -1649919.53584832 -288901.542991956
 -469573.178649499 -679637.726071718 1485797.29142069
 1123486.70733464 1262681.86358687 -182789.851499399
 1435657.38281825 905084.632765261 98537.7424726863
 -1017044.03308256 1048284.78326789 869896.803040543
 -346954.677341432 975943.127234499 -1348019.83081654
 1423373.39121291 -884969.126409222 284319.950917196
 1639631.99899043 -433974.179569924 -115209.892601546
 -360615.083746226 101403.212634226 -1658214.14474795
 -431203.327141582 1402612.16924928 -858337.225882619
 1160997.27635186 -1194314.64585022 340143.868107618
 -752593.229486600 1346364.75253957 714776.457397695
 551819.114299766 -1553301.15128234 -415633.490612083
 -18081.2539102934 1283662.44557858 -1114398.40006537
 364629.722307246 1651201.49755560 -174867.893223121
 -1378325.05170881 -211950.000460988 972263.981198777
 -422544.165441333 1579730.16845662 464660.115696962
 1018339.43355845 -445116.631452970 1286412.05780412
 -1217421.68314964 -394558.304729513 -1119021.08539834
 -1096972.86006888 1288973.36399600 -158739.444314052
 -683939.215069086 -890632.829218610 1276322.96602730
 -1026594.07942294 217019.802510218 -1337537.66354903
 703388.781787910 1191745.11996374 -987414.700466597
 -837488.880012290 1416120.86886902 428035.116093775
 -1396746.79335064 -631590.062219116 734977.815019451
 -1356237.02805669 760570.812517677 -687134.021042598
 1371633.46489141 -422378.086882000 911163.206956849
 -246447.466557028 1679619.94075828 90224.7240769692
 -1226175.89166046 -692135.834669072 -952596.802995702
 -1064555.48301422 794664.155141664 1060768.82689743
 35642.7947505426 951741.135010962 -1408161.35549532
 312922.651466491 779097.445345920 -1478203.83738328
 -799753.166072086 1202654.43320875 -896670.055059840
 141212.257069123 -622712.027352070 1575528.11128349
 -1131690.25285070 -652642.451680802 1087812.02506076
 898212.945669471 -362304.257512852 -1397121.73027973
 -1508985.21146209 -782448.596203079 -27162.9506597003
 1645123.75989458 -167334.226413229 -394419.917475027
 1397593.93387668 562148.761265854 -787857.833748169
 1330593.09869937 506210.909887539 929124.598966379
 -554216.413148382 1561017.79555920 382187.924121696
 861278.980524588 1322481.21157274 -631855.966770612
 677433.449931180 1382674.70111010 -720620.976536518
 -913840.329632389 -1166809.60494363 832737.172070906
 -1076380.80620268 -1121848.80933187 687647.881578315
 -761915.621677623 1465379.38725286 -402675.845883561
 -478294.064947070 601052.088397199 -1516565.58528465
 -489566.284492192 1362637.47979134 -890810.839491986
 -1145101.56449836 -618669.395780320 -1093613.54495463
 -90911.8203283644 -769648.593023870 -1513068.43340973
 -1213359.00518756 172007.738008404 1178207.64833516
 -38358.5090733622 1148071.86111843 -1253179.80612909
 -960384.818301665 -873320.553647949 -1097712.26254958
 -818211.210291019 446547.654045959 1421662.97272601
 839743.494212505 -1007594.65291227 1081473.01369492
 -56044.8796208836 295985.785034525 1673096.34705410
 648899.459346395 -1424361.61651164 663418.025884372
 705141.012798898 1529464.79850745 231330.028737123
 371710.928044782 204741.006004178 1646181.06732901
 542485.101693543 -456580.217087517 1545071.00801383
 -1504071.63429171 -93877.8676012857 -786737.227347035
 1238024.94782579 -477319.320137332 1062760.78925814
 1521461.65611896 -165584.790451343 -740091.957888295
 -1462869.40375048 -474334.532342729 -724582.541190384
 -960035.117088929 1392040.21690999 -174804.486387610
 226672.701973206 114957.739234879 -1680893.87064448
 1350864.06482609 1023963.87119552 -129090.157827093
 1247588.71915919 184192.863128550 -1139997.97236629
 1365212.40670645 -1012800.64184611 -20735.1019023248
 -51521.0102589880 -1636631.81533895 -456926.565787356
 1364817.60158500 -685746.963477876 746340.415952837
 -519634.935858305 1227089.57903565 -1055571.26640396
 1248073.70656863 -183960.728894417 1139504.48581683
 427591.899754373 -213521.614392843 1631433.01653838
 612005.211458007 -555061.684299034 -1485717.38489235
 -1578263.79521770 139528.594741846 616129.177976826
 -670689.604986569 -1561838.35927594 -28920.4643321330
 796902.021830188 1146180.40535330 -970163.721228074
 -61187.5164852617 -1455520.92917971 -876193.421880240
 565083.892573525 1395193.54657790 790009.596107126
 1196783.44833774 -587714.729862961 -1054656.70911768
 234064.062813444 -1648024.29776680 345296.870054610
 -1679733.64042000 -162197.641626845 205394.309298190
 1493416.61554021 787286.287193436 -199717.586670746
 -314347.451927605 1566263.22091572 581382.148223813
 -825912.042967254 -1437831.40714792 -374846.824583975
 -272278.393862699 1177912.27150603 -1195151.52046552
 1236557.58533342 -1049902.63791296 508556.574097516
 743568.852484431 1205166.46335138 -940573.844643847
 532197.546504067 1593086.34684889 -262376.948260901
 428850.904738577 1471155.81985935 736062.127268380
 662938.186089402 -537414.204948235 1470271.72105851
 1282976.26556418 452230.515514479 1019538.84812522
 770862.629938987 -697607.586141777 1345033.25665985
 649770.515216671 -13849.5895069394 1570861.69551159
 -252277.315677785 397223.941362874 -1633575.61698336
 -1490306.00209291 -770759.771628898 -273710.421000778
 -1562278.42764926 421650.801154506 -521053.467877821
 -1349082.14618772 238927.102231809 -1006424.96126469
 1478071.89622829 -672459.435546758 503092.215328595
 -735177.125762174 1339327.95134217 -745463.099361493
 -315557.828873521 572830.152250653 -1569168.21064828
 1027239.86524122 978298.575687728 -936861.866054204
 1688968.10016237 7753.56777769069 193201.032141739
 -1400944.48053686 -918890.765749363 -288087.353200107
 -559439.310630463 1270019.97749866 981874.184646702
 627415.166847737 396485.889979354 1529427.71893827
 408558.476422986 791716.415706030 1447848.43421006
 1480591.81294201 770490.949511657 -322787.205709447
 -337221.725871140 -699419.773305239 -1512313.95163509
 -1552642.95489937 -224185.096282086 655012.135159611
 -934078.010705548 618558.012745178 -1278625.92449281
 253461.986759536 1031075.63286913 -1327644.55355017
 -378664.369634070 -1642095.58293683 223909.338056671
 1218011.28371904 899799.462483705 772534.426447859
 -37529.4608411559 -5877.62623700597 1699575.53320786
 940896.862528290 1012853.55511677 989363.820832230
 773201.000510100 1159618.44467704 973368.006241725
 -1392170.09825458 -112084.849466744 969174.599360637
 -566715.551612667 -320822.653855828 1570320.44765814
 -1614151.65849669 197530.077172207 -495475.823814567
 -1164909.39172429 582889.947691640 -1092348.57895847
 -863614.087455466 -1348719.56713786 -570198.419120849
 106868.368817623 -754425.629876567 1519677.96612690
 -827609.349113512 946939.505435613 -1143839.29741256
 1425841.31126973 229958.660002124 -896713.761334495
 882479.849857133 -1147007.98921786 -891965.238821860
 -991030.460496888 1360954.16886089 235928.753286854
 540398.603781803 -871684.992161212 -1355778.23535842
 -140339.002017929 47908.2274259000 1693519.93382349
 1196765.03753228 357738.009055128 -1153159.55609691
 7064.22665401052 -1374471.91972880 -1000388.44384509
 1185869.39061364 1146769.23462926 -410650.838198908
 -862570.843463670 -1169198.95154990 882578.807643255
 -930679.171653172 -705673.916691145 1235257.30224627
 753207.187781562 1453036.09552709 -459744.534899101
 780012.041077476 273057.991620236 1485604.43893604
 -1339854.90192494 1044684.29011342 58511.3303379233
 -463176.576738475 1331188.36884672 950476.188764370
 850711.734280724 -599651.947670119 -1344138.04604011
 186143.464726068 -1296660.13836470 -1083523.46357419
 -888890.865956231 1438710.06782359 173165.727448084
 -1055187.59686451 -197337.284317785 -1318194.64861658
 575027.239024386 -1526161.41816381 479765.567843516
 1421319.27791947 351686.796856874 -863810.110574673
 -472694.051793939 195969.691485310 -1621158.91060000
 496323.114640732 353616.935783018 1587015.57289169
 -289341.673335489 -1189851.72852742 1179209.16727769
 -732016.344896976 1108795.40682352 -1060530.44115232
 -435404.352327241 1640139.23947844 101815.151611063
 -515742.379140117 -1612235.66147909 157181.329088304
 1019948.63225406 -1356022.38955976 104441.689835655
 -148203.425871121 -1580952.55861478 607144.753719785
 -1264321.46982277 80281.5155756547 -1133598.73817946
 705476.122820713 138336.914406758 -1540508.46743608
 923942.957486491 1064059.66221488 950845.122277166
 167636.556194355 -1623767.21336378 474634.619293735
 -1577501.94102620 -119967.902128743 622169.855037522
 614352.537173822 831773.012008435 1349342.29036316
 791051.669629322 1164801.09533147 952615.171142722
 1368751.74075795 505175.112302725 -872534.685890491
 191658.456289151 -872888.922058346 1446143.82613925
 -36449.3879955583 -949811.322155442 -1409443.11499971
 534345.970644422 1598103.80757777 224807.926598467
 -708039.420450994 -1249875.89714022 -909115.185680760
 -687892.485231738 -971664.099557007 1213537.31149634
 -141518.021979609 -553787.764902102 1601028.34481458
 -387223.855203530 -69915.7852341063 -1653834.77679495
 102990.115533606 -1614144.67551881 -523383.227278680
 -393129.207527566 1016998.83772386 -1304286.31452495
 -432393.395585934 -1641556.71967057 -91255.0686705672
 1280366.59643785 710510.417017805 -863618.159857314
 1420638.78888537 713243.124772981 -602552.633782629
 -726073.134523266 1536497.18978573 -44656.3445002097
 -323415.992527500 -705122.311824046 -1512681.26885520
 -38222.7431761856 733312.328055558 1533229.28860162
 -1646958.59156295 -354137.572758432 228284.859852232
 -1402385.14955956 -405077.083800966 -871337.161191993
 421053.203192060 40098.1186744766 -1646543.75616334
 -846989.230086526 1376108.27583789 528143.216644775
 -926031.650982109 -808369.351666604 -1174310.16885040
 1311893.88474194 -618059.943067693 -887094.325284446
 -964531.385069618 1370391.23396968 285844.491069414
 390386.278260739 1583291.21099587 -480403.470979305
 1235762.65740313 -848320.820039952 802023.965262074
 -1139856.79465356 1164401.46910749 484660.403192210
 371917.993718356 1527844.52232511 -646040.340497146
 43659.0636241831 1456911.20771929 -874930.636670920
 -878091.265356298 1338218.41254887 572823.890929972
 -1551642.46735520 -312030.364745451 620518.093996200
 -526111.682943590 -445600.241170676 1553913.42169984
 -1622486.06024905 -432488.538927891 265504.515956944
 819423.571311559 1016003.24752779 -1089165.92482137
 477068.778394435 1559173.77058472 481022.383888590
 421544.329798158 777723.126123880 -1451704.90014573
 -683143.303948153 -552498.382616966 -1455355.88894141
 -798246.350387692 -886717.357786112 -1211005.81810888
 -347809.726353017 1144309.22090014 1208132.77466392
 667615.486459062 58439.3140573918 1562329.80155041
 -1681445.57579729 -78908.0680093324 -237727.348941475
 -1395180.85319377 -901496.107517802 361628.476494543
 -795799.296756114 -1501460.23526256 -48173.0340311333
 -1184922.94338402 34283.7171102462 -1218516.41145422
 2535.18028977519 1618270.32453894 -520763.602393196
 -266334.404415555 1033686.86588884 1323086.33441417
 -838926.549435380 -1473648.45730644 120675.055130715
 78132.8177663402 1114137.94864713 1281636.41262733
 967818.978641307 1386612.15503722 175023.301547915
 -392717.348312257 -1141447.10512879 -1197026.14446289
 -1585503.47818303 452246.233432420 414309.141844233
 -1551099.66415086 -231693.281316308 656054.917871959
 1698118.00691222 -38370.0575412004 70163.9030040429
 -743874.235583004 -1007946.83890567 -1149214.64121193
 786726.941371772 -1161772.47591129 -959867.404350610
 9514.88232284801 1675956.92021755 -284741.757719670
 -958224.863183171 -711542.237812801 -1210583.64245761
 -696336.767103946 -1059976.81254241 -1132061.95221448
 -1197678.25125533 1196839.79922462 -152122.652691635
 -387050.764932076 -1053767.38038005 -1276622.89397161
 29896.7533526325 -1699131.73312162 45360.0886033363
 209496.050860866 -1646780.06638022 366369.782660187
 383546.571472095 -1653241.37253672 -98412.3551435646
 -1114216.55373806 1173877.68060482 -520127.544313828
 1589500.42257235 410531.497611577 441534.025994724
 -809392.649295507 -1185692.41407333 -910503.727875594
 1558470.81353963 56699.6175303039 676722.895073786
 1569443.08310936 -314384.869334859 572722.064193013
 1127491.65795535 -133718.267737318 1265259.65165828
 -780607.845928546 705465.033902555 1335279.17560923
 -1588167.14916768 -603061.481445508 -63576.3784857589
 438175.364589423 1321601.56210183 975382.827876792
 1578362.96315665 -618266.467372891 -128518.216053584
 -991737.606629524 -899619.609702583 1047445.02358611
 -92444.1013748471 -500597.088725417 -1621991.56683401
 -880873.121532989 787753.313300814 1222091.34729950
 -1037005.86494233 1267296.72174821 456703.246234835
 1330818.77057405 943504.843136718 -478246.809571523
 320977.348255238 478314.923704000 1599433.76720297
 112345.029736546 -976965.006323232 -1386693.17828903
 -1595511.73937452 -180775.091274817 558267.548665219
 -850726.514950786 869130.504901827 -1187803.25063067
 1549984.37586005 548821.467473013 -431675.145717802
 1316138.83183820 -824510.388503331 -691347.376199297
 771205.837612653 1514737.04368074 28517.4426185374
 -358765.105165096 1024706.36826228 -1308153.07137911
 357665.110676067 -1160496.02316300 1189674.17759146
 -1511228.67131199 741237.917320414 238231.511205148
 -943568.173226319 602380.296862425 1279381.52262188
 917811.779719019 443594.803827620 -1360457.71232558
 245366.685984007 1637165.69535007 -386631.187798081
 -1414926.78847171 -599619.780753837 -726937.618915038
 754884.695470672 -1009462.65710641 -1140672.71399461
 613387.632846384 -1149114.79757613 -1092378.50302112
 -1416808.38988564 -55717.0746685035 937843.054002124
 1412497.98627248 241189.813233542 914700.449747645
 -628635.161347201 996470.422583881 1225505.82651960
 1163317.32596765 447377.701180586 1156090.82324438
 -1690079.59426977 182363.900938104 19348.7122975393
 -525592.484204141 900407.151996993 1342765.61662145
 -285132.880244571 1675909.23717786 5241.12062158104
 494928.708499474 293261.186740664 -1599701.05015109
 1110070.07868326 -924221.049754854 -896415.010808149
 705221.373528121 901246.059041759 -1257146.91081862
 251750.452663946 561056.614398512 -1584877.65616882
 -655061.500544677 302796.751485758 1539223.36189191
 1245730.95764054 -1138356.68925864 -205665.819221623
 -1017575.91158397 -1026292.51111223 895132.920743623
 111982.727624999 1176031.77833962 1222460.27544826
 -449921.507742999 -877090.300486957 1385021.02571115
 -809970.925951371 -1481598.41037864 -197010.785179295
 -1666820.34635922 -49464.7500767903 -330549.801789052
 -219369.445277575 -1255770.44136164 -1124685.57609716
 1668258.84057963 253823.876822526 -206121.033334014
 1090689.40859952 340926.833413421 1258636.36854635
 -681210.908472742 -319740.192642261 1524374.59549378
 155510.979786734 585463.841449142 1588410.66022656
 283135.827257185 -1669771.32766355 -147301.787620123
 -1146882.61251284 224575.138374822 1234595.59384425
 -929636.757574119 -537323.799986853 -1317975.20194227
 1395512.24199145 -935489.768804196 259623.717935539
 -1165232.12577792 1125521.76740702 515203.691900646
 813081.586419175 1402809.58090716 -510904.701036452
 -329882.259660809 1665937.76348637 -76348.3002503829
 -1137095.26052045 97337.3475540169 1259976.11456451
 1117144.40765779 1280027.16497998 59319.7214444282
 1509821.70443270 404218.415019518 668614.906940504
 -968458.698818884 1369657.17448072 275911.168812604
 361074.037861520 -630735.193346304 1536814.45043205
 1388851.08816158 -584382.247873816 787140.421578223
 -402534.921218323 -1582232.50781677 -473820.565623326
 67348.1959808198 1682079.63281428 236795.965695135
 1219942.54246703 1170810.37393394 -175906.967934005
 -206278.968791616 1663492.59935722 -283269.057466600
 -987578.070319522 99446.8181745752 1380144.87840187
 -1327356.13210218 382050.968728790 -991041.248316203
 -1535714.89927691 -256172.931692427 682609.095461675
 1103101.57543989 1084403.46324129 -705149.660123524
 600720.788325617 1463623.66053331 622045.267485034
 51207.5642778133 -1170910.09622702 -1231400.55705460
 -620968.391925341 1548329.70555685 -327220.688710070
 -1563506.68027205 613029.517003921 -263897.086051770
 -70053.9136985330 -6691.54640010115 1698542.80852214
 -829417.615345563 -1482578.67873474 63457.7080867617
 -833360.800013199 451200.899886358 -1411356.62571269
 -715565.974185988 1386896.81927569 674153.209048392
 -492369.429440978 1040519.78267385 -1250956.00514820
 599332.137111962 -1534113.83872846 -421064.982213714
 676120.023822161 1557801.24107707 -78211.2951271075
 -584408.125950694 1165489.71334201 -1090917.44436357
 -629895.311862750 -1159780.19235247 -1071513.78970137
 -832363.437538246 -1479900.36396721 84059.6251433372
 22155.2798048813 1376178.75809670 997818.204554410
 -3656.26843387771 1697417.17659599 -93603.2066653138
 703399.356674901 1320378.76645987 -807359.435512608
 -195474.556370765 -1610116.07110260 509230.729030342
 -802403.662694450 1480822.49635643 230896.289227942
 -1357961.15164048 797580.665614139 -640161.380023636
 1125655.37232360 -837770.350056970 959708.717957924
 65528.0089882237 -181817.867800718 -1688978.49097803
 -611689.952409065 1462939.71057349 -612897.059341077
 1456195.30510525 876965.000631607 20679.0003778419
 -1127738.54189433 13245.3221369726 -1272018.21628762
 -772594.139974262 78909.3101551348 -1512240.59449820
 875209.012828884 630966.869398860 -1313731.32473276
 457288.740400417 574234.369060164 -1533343.37227285
 695260.302151501 1469836.47099900 -496179.262740201
 1119095.49961450 237695.704258175 -1257428.33391004
 1597780.20827063 304606.170949496 -494280.777168366
 -1484384.60444099 -29809.1431569350 828078.354434420
 -1046371.39460838 1326763.00816758 186565.872290240
 1176128.50742955 -413834.896522522 -1155622.08893381
 1352706.74208007 656620.514093710 -793116.618412721
 -1257406.77857501 760868.133781448 -854404.983710620
 -1092888.17699318 -1088485.03552924 -714699.769146063
 -598503.792915287 -1424754.25705465 708426.790057134
 1086641.13880694 1220730.17348013 -468005.212585866
 1596768.18858506 583256.013861779 11990.5886787228
 -1407838.69840277 785497.965016766 -539428.536725786
 1468706.99830110 233501.146463358 823636.429343470
 171394.079503451 -93886.3586380207 1688730.12088162
 -175210.800372035 1572541.25448895 621623.019492775
 -1358832.60799301 197497.743228749 -1002281.68938401
 -1283179.65538497 -903281.297173773 -653859.977504502
 1442936.66584778 -818087.390571304 -372379.913180519
 -1034212.07580391 1167195.94326307 676800.570546156
 1427941.19468047 -748042.377112341 539830.108996007
 1491151.69525572 -627777.945589480 521882.623553850
 -749935.224229752 -853869.786967881 1264319.40045342
 -643382.965578019 -1192957.09192079 1026114.87487509
 -1284515.29309424 -1062145.41288610 334466.117405108
 -187331.918035648 -756315.723010866 -1510924.64392227
 645606.128369399 -1546950.69883503 -283083.490132646
 -254349.777347319 1470152.08166952 -814836.822637608
 172245.838338935 246890.426799213 1673133.73294839
 1582859.97277606 521727.682692095 335193.275135567
 1185546.77017254 1036099.08073289 641075.308086267
 608737.427358247 -1471449.16089138 595210.980615556
 -1416905.13896604 776043.353283297 529279.265602240
 1308683.63900726 -283265.369004934 1047429.16883062
 88174.6251112312 563576.439047962 -1601438.98817174
 414210.131430235 1438476.85343464 805738.362716658
 310700.895757535 859122.168478438 -1433657.57871410
 679236.313006122 904174.070603946 1269294.00894408
 -753329.989526752 -997803.029014512 1151904.09417151
 -467792.065872108 -1602360.35147024 321888.004037554
 601395.511621458 -1589423.53078933 45346.2057369134
 -1593154.37015301 478540.992180007 -350510.587095078
 -1475912.03638318 -401404.379866412 -741996.081312651
 1655727.51211809 -278091.296881990 -266892.555560701
 65015.0055136222 1457934.31070970 871894.830076140
 1471585.76230245 -849102.740919686 58820.7408267479
 181007.984659224 1488754.08430304 800529.441033003
 -330454.062049052 -1391741.12649790 -918616.758876975
 -364124.524447743 -1109470.77299665 1235511.20373792
 1424007.59123989 -926011.912796469 68588.0270178737
 1508101.13187099 780870.468067635 76630.8563783532
 -520675.681102432 1114156.01840397 1173692.12392464
 1310959.80192231 -408831.933083775 -1002118.18077251
 -816297.930120857 -1330869.03332809 672640.546955631
 -951311.710978123 1305939.38103542 528704.418003759
 1592002.87661908 107668.078498522 -586459.227661226
 50622.3113657703 -835823.006738401 1479471.96086941
 -1520059.50525422 719269.114973711 249140.604340691
 -806599.704994507 -897736.514878173 1197274.43209866
 -852951.466966774 1459378.25405270 -180800.737269811
 -29421.7054444807 1279708.66043289 1118695.71719114
 -1044657.81645293 1025969.42553014 863757.364310805
 511229.035162417 -144885.138075201 -1614822.95325891
 930979.992689057 411790.195160831 1361508.38718757
 761525.774709556 -1519806.91143219 -16292.5263833550
 -1199296.62185154 -847783.653943574 -856125.276417863
 -231151.699216052 -943417.066153459 1395182.11400517
 231785.853461289 1677973.80345655 -143802.757444955
 1383814.56498625 -982048.266999070 103142.867014784
 696110.244993200 1241176.98220977 -930005.497644047
 -764278.709081425 1396224.11550974 -597022.842204444
 -1525733.15100759 -535036.722231724 -525237.144326229
 1587637.85226956 494861.523649878 352871.254782550
 -1601353.61796390 258955.558164544 -508535.750099852
 1275111.34896657 1047235.12309879 -409132.795904864
 -695577.630160881 227989.336511683 -1534337.84508391
 390337.583752991 -736161.038941921 1481790.63819887
 -368263.687959207 1425768.79654034 849449.936689968
 -1160193.62924153 -1170135.37513004 418011.897601795
 -1255608.68304259 143839.957740967 1136994.67968198
 -1188593.40213842 -933072.158262094 778859.468626487
 829557.831018035 386493.130812419 1432639.82383273
 -540709.080922460 1477987.83566323 -642795.183117841
 -1027301.04261371 1062296.01302124 -840345.017575499
 -985829.402754598 1373769.06248982 175780.976247030
 -462621.258922922 1632188.51459811 109280.481361385
 -1636963.37724917 289110.940931877 -356041.802852522
 1469253.76365541 822554.016519760 -233876.608260914
 552180.395915828 915730.462781557 -1321565.18185828