# OOMMF OVF 2.0
#
# Segment count: 1
#
# Begin: Segment
# Begin: Header
#
# Title: Oxs_TimeDriver::Magnetization
# Desc: Oxs vector field output
# Desc:  MIF source file: /home/martin/PhD/repos/ubermag/oommfc/docs/ipynb/thetaevolve/drive-1/thetaevolve.mif
# Desc:  Iteration: 1121, State id: 2251
# Desc:  Stage: 21, Stage iteration: 50
# Desc:  Stage simulation time: 1e-11 s
# Desc:  Total simulation time: 2.2e-10 s
# meshunit: m
# meshtype: rectangular
# xbase: 5.0000000000000003e-10
# ybase: 5.0000000000000003e-10
# zbase: 5.0000000000000003e-10
# xnodes: 100
# ynodes: 100
# znodes: 1
# xstepsize: 1.0000000000000001e-09
# ystepsize: 1.0000000000000001e-09
# zstepsize: 1.0000000000000001e-09
# xmin: 0
# ymin: 0
# zmin: 0
# xmax: 1.0000000000000001e-07
# ymax: 1.0000000000000001e-07
# zmax: 1.0000000000000001e-09
# valuedim: 3
# valuelabels: Magnetization_x Magnetization_y Magnetization_z
# valueunits: A/m A/m A/m
#
# End: Header
#
# Begin: Data Text
 1456340.87269343 808855.230811029 -338857.607428522
 -1612724.64894970 278132.748652108 460175.380477154
 1630751.68230506 400967.897910461 264336.330277350
 217012.678099551 512961.755586185 1606168.02821187
 810491.379110450 118291.995869268 -1489667.99257449
 -1163820.13734368 1213656.30133597 250122.110459724
 1018362.76965855 310762.827711955 1325278.73833614
 964867.696506332 -512122.788639027 1302597.62689602
 1568987.01873298 107973.556263603 -645462.195790880
 -1082725.53028874 -1307387.12680161 -91893.0178761618
 -26818.1368153793 1606814.90870325 554460.671920662
 168343.039425999 957657.646393989 -1394472.10562992
 -12716.0312502175 -1364791.31464606 -1013500.35521253
 1392377.03960943 931106.563710262 -290390.679230823
 79042.8384860755 1219557.05418714 -1181707.58703939
 407208.394244551 595418.312963048 -1539369.46710171
 179361.110537911 1533714.03582705 711020.990079562
 1341074.43613017 -832263.165079620 631551.566231767
 -1123215.30505478 1202460.79266020 -427171.418292101
 -1610981.99186957 471673.698599716 -268813.957824400
 1132368.92549727 -523724.316103002 -1154752.55240705
 151473.893345573 1192062.27547627 -1202515.35999382
 1314429.82660715 940508.169340418 -526990.146330488
 -1482359.13852632 393322.244085038 733422.795347543
 -944149.610249989 -1409823.08162237 -104787.365600985
 -57022.2219223836 -1491892.39792260 813022.471539255
 -1540651.83267633 -212107.147657065 -686587.567891997
 1556635.09923945 -667471.474597195 146181.388742975
 172880.322785510 -1683450.69497350 -161573.981775631
 -365987.573500026 -577879.104669833 1556312.57671123
 -444453.695692562 -251912.928898861 -1621419.37469577
 185448.769658547 -1686700.37175199 -103201.791475800
 371092.410917459 -374083.227743959 -1616277.25383986
 -628669.449673376 1124484.76108419 1109192.83496460
 -1597106.25483205 556198.077975649 172902.599264826
 -9598.93695674542 -1431414.06990363 917039.596141418
 -310858.862986277 -28315.6047132766 -1671096.94327786
 -897801.765709441 -1340483.88263771 535775.092625208
 840389.821348900 929.177983537994 -1477749.66919348
 1535560.63944168 542910.843218749 -487135.852625280
 617297.377909048 -1204621.85707841 -1028508.69158971
 1083426.96813299 132855.715221159 1303278.69761430
 1247196.78998346 920192.810978138 698387.684369579
 513901.534530755 -1143638.84043555 -1148039.81440287
 615879.643138243 -825199.652263133 -1352678.01012389
 -379312.309541750 -1524615.60850746 -649360.776553010
 1592190.75796738 -595744.623616853 -4115.05466167835
 -1637155.41412589 -6385.50757012868 457909.789468801
 -1098326.23205514 1277222.85536126 -228869.538651133
 488017.692543891 953841.883753591 -1319857.71678675
 -1531136.30620088 -529227.991613644 -515305.098680495
 -214602.697039868 383536.419475328 1642207.50739949
 289364.054773899 1572838.99516644 576581.251072772
 1079637.10671613 -1303111.75871172 -162121.750881492
 -875432.659520430 -1004369.71924787 1055868.89607704
 -1368818.52044543 -487904.981758851 -882204.390637722
 1598205.78986194 577503.357547391 -47203.0218659514
 -803402.624886083 -1058583.83650597 1060162.47972396
 -1444544.84022378 518992.748111728 -730709.745377942
 -381825.591414242 -1456201.56833918 789738.064238827
 907204.531659186 -1272078.89999183 -669921.793892847
 351951.720549188 1196052.20238316 1155676.90795346
 26041.6598736623 -1607168.98618045 553470.578992903
 -988139.505861170 -705722.876960728 1189762.80740773
 -256785.673545737 -1679684.31888553 -52169.9794107543
 -176884.285516127 -1424767.51305458 910356.789001825
 -1108693.92537315 1140088.86558481 600828.726352379
 -1032726.98561180 -1350271.32689180 -15566.5334293646
 -909299.819603227 -1200382.57239048 -788831.742496934
 -1013337.77366716 -1240742.88950404 -568949.592322951
 -441232.808397908 -1514118.60618110 -634632.535574334
 1095488.57358048 -1260202.68242808 -319051.695428292
 1693306.57602290 -135188.811258067 -66609.4956310493
 1225623.15473046 -181335.979190173 1164029.70118450
 1640369.29109564 -347299.563818065 280306.264293485
 -75288.3239155344 -694045.777297432 1550042.62112291
 -1253581.07420295 959947.246404500 -630107.748341984
 532396.469102689 -1597254.03149650 -235230.862250598
 789858.861678334 544921.683506208 1403275.93062554
 251233.071781412 152409.777467361 -1674411.30053987
 1031636.01039053 -1217758.84557916 -585483.164642019
 -1662851.47135348 -53544.3583064132 349367.980660950
 1510743.41150867 707918.884542838 326351.340568357
 427680.099621382 441475.668825978 1584988.63283700
 -1513747.68317262 -601352.696000982 486767.795465030
 -1289443.66442402 -449119.712381013 1012732.20558425
 -112652.199291416 -1696262.40052207 1830.45620224837
 1659473.45953075 187105.481173243 318024.175225697
 446109.452781321 -1640403.45586584 7928.31145804549
 206095.064109236 1446147.54929170 869587.310295761
 -1171831.77465972 742288.743309210 982760.252276360
 86064.8067816885 1028356.31988076 -1350953.78469988
 -948514.412920782 499947.062545096 1319232.10358681
 -1096717.01071537 995123.443235983 -834830.001335428
 350922.917925510 -1090855.50892210 1255741.75861478
 1652625.28504127 334198.896154550 -217119.241550236
 -1689257.96373846 133705.917002703 -136125.896524667
 109921.080450053 1662926.66152475 335547.723078023
 -1183015.77992651 940674.279962114 778206.632882696
 1567005.54263219 30001.7528925460 -658478.188084739
 -1254704.87296734 728762.091113172 885788.629588551
 1328424.77678718 -1060790.45104077 -3351.32789221215
 -646512.575421903 600354.341958152 -1453133.21960285
 623313.735319959 -1295966.49543557 906615.039622615
 -880025.335279098 1072761.90349488 -982210.419246787
 -518178.963829813 1550248.06917447 -467141.825857077
 414838.039084822 -1648580.93404592 -9502.90632123046
 1659591.63265080 -155911.361410339 -333837.176208166
 -586730.688932274 -1522934.17672003 475834.626780295
 17881.6334646719 -70390.5242304727 1698447.94482586
 437626.843234861 740710.411313578 1466230.14313987
 -188299.245580841 1669047.81040210 262341.000809317
 798300.568511133 737489.969322335 -1307220.23678634
 548871.873720974 451906.164077957 -1544189.26466492
 -11668.2312642520 -1697197.47564692 -96874.0472824682
 333473.383428135 1649302.72774408 -242066.137245466
 -550077.034548707 -1436690.27271838 -723419.875548425
 -477746.336433360 1628642.86001485 96337.2853425289
 168430.221065828 170426.782376357 -1683028.80916536
 640202.730441420 -1496955.20012263 -489147.823015878
 -245.292220206935 1660007.87233085 366570.325628432
 1055663.13593585 113833.321397667 1327635.98865264
 -190064.260777854 1374350.93084045 982361.998284219
 -1254666.30022330 -697557.242672279 -910618.673364113
 -1071606.82431885 -1055509.26338245 -792186.221154540
 -1307619.42399391 166279.973697138 1073537.33625855
 262186.240107642 1659603.74847944 -258792.916308022
 -160607.973800566 1477064.03272121 -826127.666885112
 849696.333930901 -457106.644685660 -1399667.69466492
 1367624.18639472 -922378.725919799 -410879.022047553
 -1675008.39400119 61400.4706851275 283860.638738780
 264958.612320578 -1579516.70829712 570020.966252448
 -919398.533962245 -1425129.55742665 -117098.592207614
 -1676369.07208094 203539.398549616 -195853.127134997
 -802283.105186505 509960.422084318 1409355.23805742
 -814588.303038567 -1455022.60750494 -330688.838944216
 1414121.07002773 -837936.952389858 -433731.787079555
 -232799.722448533 -287632.802757141 -1659238.27704340
 874334.437448980 -304488.089844117 -1425772.17487011
 -1444806.80663088 -507730.761360112 -738066.911249765
 -1555648.87450104 -532376.183772742 -431893.711710673
 620696.904807819 -1295429.08065970 -909174.817811822
 742920.374686961 -1041916.72644465 -1119142.01602382
 -663745.452003056 430832.342303803 -1504601.43153271
 1386320.72165226 296349.241127922 938238.767052643
 -1508534.47126738 348370.675246619 702112.257140031
 346866.985471636 870784.980905148 -1418244.27071638
 290183.313748749 -1642924.89720875 326483.424622789
 1403898.42582017 -193423.087666335 -938965.771014728
 -1041388.57824309 817869.713670411 1066113.95289881
 1536497.37000001 -54839.8967608221 -725374.674017715
 -1571406.63964316 577897.613411242 -294474.992654695
 1585332.78843008 -414713.858509238 452473.607505332
 -908136.293179237 392844.752393276 -1382375.30125785
 1334023.76031771 1022868.55291858 -253220.319796905
 -764073.865856673 -719902.160589393 1337135.74729478
 1611729.37925375 210262.851353850 498114.385850133
 1290546.00198024 660188.133616706 -888055.541621419
 554537.562851766 -1360580.55389630 -855165.859787242
 782234.760627259 349914.205160828 1468219.61173834
 1674595.19737762 -238082.666680877 -170433.473079493
 -621484.589505945 -330827.191495994 1547355.89777320
 490806.216606591 94475.7429286197 1624864.17639703
 -1076261.00287780 598356.555402487 -1172020.34380438
 -453273.567561520 -588601.703422093 -1529081.78580436
 -1101866.87928979 1294349.84600887 23406.3337795576
 -762619.390812925 -465612.769156345 1446242.16988535
 -1518459.80459403 60474.5675040251 761985.989712055
 -352351.794532167 -1549906.32079520 603024.551447994
 -351856.897671601 1280830.11546460 -1060976.40825790
 1449631.76038099 872156.983749480 167062.727715477
 1307780.10872402 725467.703679191 808336.438708687
 1332230.08402512 -658641.228262231 -825442.145550888
 1472801.43848145 -318287.655662884 -787114.280812892
 -1452116.89646936 -116288.676545730 -876261.069941729
 -1586184.88964912 -552158.691385590 262941.581679595
 -986929.628247356 1136355.65174836 790357.983212103
 49729.6928019684 1445584.49257767 -893203.466446917
 1053349.11257668 157095.476835508 1325057.22827044
 1548826.63233093 -158854.095189774 -682569.732279332
 -498586.982519446 439389.222839968 1564719.82530875
 -1194764.31804901 -1188915.15778549 -221402.285229355
 -374850.782023075 -1600289.64479998 -434234.894915908
 1073658.00468451 -1317422.07286460 -40713.2767782420
 70593.3119948460 -1688085.89062695 188102.658587885
 -645425.556187393 -542700.164955078 -1476110.55899547
 1181793.21131429 152740.991369068 1212449.99700897
 643769.323204025 516361.412543075 1486247.60727745
 205679.781305626 -986953.221309777 1368802.09179718
 378439.569351009 -954410.953452094 1354947.68322621
 1565837.36912785 -573357.091738237 330779.350619492
 -1085600.60582990 -1276803.89415384 285031.823653674
 490007.063188771 1232162.59556459 1063799.04874777
 503840.154618086 -1456750.87974782 716953.257157245
 -1007030.50806881 1365867.12651608 101471.910011475
 278113.591248190 -987786.054509610 1355334.47564775
 221416.965724927 -994392.414102366 -1360940.20958484
 -290630.973998473 -1316359.56992853 1035727.33844882
 1285052.62743674 734303.289102533 -836324.353544209
 327580.306091679 -1549563.69127471 -617692.083277732
 784015.028562898 -741796.943259815 1313414.53089187
 -352168.737250493 1609471.66297618 419020.460813179
 704734.294510046 -1544017.23742232 -96748.8743302188
 -212774.151255741 1272436.93184386 -1107082.38854982
 -862925.143865950 -1268297.18052708 -732654.391886782
 -216942.125401905 -697826.779393854 1534918.20635072
 704123.698106923 -1502811.35281476 368466.898941135
 476378.003272391 1501936.24038959 638162.618618938
 1628634.97108211 -339830.556801305 -349375.619688153
 867868.598154303 -1084786.88197481 979817.083456425
 -1449719.83928549 -349678.950659193 -816110.910996744
 -1124620.59468295 1189246.85981408 459260.736877538
 -1000914.06096695 -1283044.25756651 -491902.912864178
 525249.852076131 -780852.748952905 -1415761.83637881
 -913944.034438929 1072423.10601736 951112.497864247
 772387.104481719 -307638.986441071 1482827.16958244
 481782.687573768 242403.910846759 1612180.44460302
 -1235608.79293721 944452.537082977 686498.591414263
 -146577.967534547 -1679930.90103231 215283.690023702
 -1354603.73246568 -292175.545093928 -984724.417712442
 -508768.465146655 1621497.54613036 -43593.0816245136
 -1176034.12958185 -284228.475335865 -1194218.53103480
 -473642.890088670 -811336.180358039 1416826.03558464
 1574074.17002871 -506843.010841742 -394208.916197111
 -587113.669792759 1568855.01138280 289812.856860350
 -623607.973369970 45917.0903992983 1580824.06243031
 -104512.932909659 -179296.651459831 -1687284.72927064
 961881.432468952 -701827.338863232 -1213351.76115405
 -17669.8957843301 -1301269.45941177 -1093794.11626923
 110675.028863698 390099.241321117 -1650931.13723944
 193714.539855108 -712508.223866682 -1531276.16972611
 -84518.2293329820 1553108.46451419 686083.643854594
 759251.839920567 1457754.96332267 -434151.022669937
 -1365153.44384041 620930.991428021 800500.330202865
 767241.382741673 692819.787837286 -1349570.82147983
 -692095.538793407 -87938.8213197711 1550248.53777940
 535186.675004917 -1485038.72046721 631058.809945870
 -910431.361665850 -774860.955701308 -1208596.39045668
 1221952.02521054 -1160896.36860647 -221704.464186383
 -1563017.68327396 533882.803601581 402423.749040006
 162373.858427320 1413771.96314737 -929991.164645055
 -670868.367366865 610462.379082307 1437800.86152140
 -1382789.49597739 -845147.424101137 513438.449426798
 642602.557444355 1493870.21927510 -495392.491998945
 -585425.478726674 -592617.110814930 1481918.34080931
 1235974.68525084 -267175.784907736 1136214.62645840
 -121439.160138242 -1387871.09898655 974200.360799972
 1160999.56141387 -63135.6290189869 -1240199.14156767
 463258.751744537 1034203.55651339 -1267207.29662796
 1507632.21991190 -679107.971048527 -394787.858402288
 -1092449.09566665 519935.102688002 -1194245.56200555
 1596669.39298604 507324.985497271 288562.313186928
 1526338.07687721 104828.222560608 -741149.862598347
 -887335.999362163 -1409545.33520452 340318.633399815
 69533.9623019792 -1074285.37142419 -1315703.60219563
 422053.216724319 -1637177.51436137 177541.174723490
 -1088283.40648334 -963568.104695117 -881575.711318815
 642350.559432268 12996.5390370113 1573917.67534713
 -489923.228274782 -1400607.79101209 -829622.230990128
 -832724.138571446 -103369.244570287 -1478473.97958754
 887699.973994105 435753.001585206 1382789.96155611
 537080.137794250 -1384657.92941678 -827204.535825425
 1250979.74649072 -1143828.34089276 -129253.241508794
 -1311828.73777411 -1004698.25308696 -399608.286943597
 -788800.947897302 -1049966.06977724 1079520.41060503
 -1108852.40063144 1249994.71115858 312984.944828776
 -492962.803254387 1618947.57071763 161234.108907126
 410464.475565925 847700.131485393 1415246.76342256
 662719.133958305 1565202.13843863 30750.8587310759
 -1377084.77673525 742430.407215150 665157.581424413
 1491240.78076188 -793065.723154197 -192996.612795705
 -738966.718415399 -597662.962106622 -1409513.09777537
 894533.832899205 -349084.429264691 1402836.15687777
 784339.502847841 297743.590550537 1478566.97466110
 1585122.29635050 -593027.863050481 -160328.597755682
 10435.7430273314 1504076.44823967 792240.577803369
 1552179.06868548 665950.740139878 193001.944139982
 801290.136363714 271651.503617913 1474496.38112420
 1542435.95210554 256819.806392812 667034.422422576
 -679057.498779882 -1008477.73994494 1188214.44250874
 -1398988.12836116 130802.852364910 956934.078459821
 -1570469.82158678 -86880.1089273088 -645039.833001016
 325061.620267221 -1494393.61903170 742376.356322444
 188803.721497366 1464777.22899734 -841891.218721052
 -1172426.05259021 271949.268906526 -1200608.49003701
 636943.776699349 1454668.23586028 -606830.247188705
 -514175.799697556 374331.281754570 1576546.64964452
 -43724.1711407836 1082661.16233274 1309936.25968379
 1403738.07695886 -702420.899554688 -652781.962959004
 -182756.773473607 1238121.02231904 1150502.62748121
 1190865.06666149 1153090.57697658 -377124.003867608
 742794.154676338 1169705.45505899 -984909.128896618
 -744009.017702536 -1377073.64910196 -663414.460594816
 -1582256.28715033 -132195.710578550 607444.924151885
 -333914.551647580 914164.005946113 1393845.48728708
 1039747.44198533 36141.0174293043 1344477.25296643
 -1684146.60631621 -210213.573806903 -97264.9053920611
 -531577.172808959 -1548366.39435909 458243.623161172
 1576670.51452172 -600658.012687509 208134.668981629
 -495218.851505696 1278452.74039454 -1005145.20328710
 761225.219600006 -267337.707174902 -1496351.13371407
 -1202388.72326830 568068.836744318 1059036.89967687
 1083548.61376075 -1257491.30060991 -366930.552703843
 -350341.169041640 746925.549609149 -1486392.71009233
 -1636067.50376986 350949.363609418 -300196.048092585
 953699.832673120 1225628.90525973 -691585.436335309
 -1055770.30975621 -1214642.17337357 -547716.572416432
 -102273.460893005 1501432.77288538 790721.042911275
 -951542.337002942 271080.324397267 -1382419.12552440
 1583170.60286031 585623.998818661 -201532.563737385
 1493553.28402609 117115.626855063 -803481.498057816
 1507273.85678429 507128.208272650 600788.233097817
 1506508.84851332 783983.200499298 -76167.1233929832
 765928.761299895 1514581.73248699 -96929.3981737427
 -460097.333602647 1466964.75632317 725482.492771143
 -151668.855732804 1028616.54715910 -1344970.09524791
 -834709.385287850 1473428.50730609 149226.927764788
 1418273.54884759 520326.087835334 779590.214764929
 -870691.233828088 1044785.23085104 1019961.07608597
 -1026472.69329702 -1046116.46381913 -861390.825376096
 1595432.95252320 -218162.230010544 544976.086998263
 -758473.363538502 1354415.78484455 693019.508070670
 -530078.015610269 1207362.94229929 -1072982.76916690
 -45965.8053311470 -1236533.30140149 -1165706.88394012
 142352.385890401 -151780.114059623 -1687216.22657185
 -715775.409302574 1462087.01525048 -489864.392739122
 470431.638743247 1214364.15846015 1092709.36845838
 1632300.31495303 -280144.065786484 383555.712001331
 802846.233421706 295294.762665869 1469094.59485177
 1466070.01113534 187717.530287501 839881.450725275
 -860044.743317613 979766.146585682 1091045.98321812
 199761.183918220 231522.390710442 -1672271.76379897
 1385469.37412541 -719885.117827388 672487.940777529
 -1294518.06585413 181563.419715514 -1086856.79912235
 -589959.608704358 -1458071.13829555 -644962.181656359
 678230.210040094 -596929.508859006 1440027.41072603
 -975546.644415533 -111980.985186457 1387720.79451389
 121718.693158517 -1545050.83816890 698571.733760652
 -1433180.72649152 -879446.076364889 -250135.171416633
 -220362.915538008 138043.689312612 1679995.27537924
 -441691.090400225 -1587275.33154357 418886.622529660
 1526089.96429920 60864.9818480815 746555.339442366
 202259.465678577 1672892.48708775 -224770.627949428
 992100.013507975 950101.100943575 1001521.57299944
 1663332.51431961 -138259.226968349 -322814.703762557
 -656746.428645749 1166785.76982865 -1047518.54197738
 17185.6563451047 -1682720.71452301 241154.826058205
 995451.712839470 -1078451.10355144 857915.557997203
 -1048978.86067703 -473682.966043102 -1251106.62916209
 -1494696.45787188 -764440.923841389 267418.347877962
 -1084370.03704122 -1305601.98942044 97698.8638040620
 606179.698502062 1568350.27553888 250646.337178648
 -1407179.99391830 -762961.319184155 -572480.995444271
 -766639.660278162 -413299.855427898 -1459947.55412373
 1636898.82009042 -274202.430230904 -367933.798450296
 588487.716016532 1354693.44434106 -841717.220898447
 -527588.349220716 1243644.03402116 -1031988.39645130
 -1352176.46078272 282106.711885415 -990976.600134595
 -1061759.82832955 -1293572.67974832 298890.931870365
 -1401428.18357702 -918731.455828320 286236.892010056
 -1285764.45983351 -613043.624508947 927893.996250640
 -481511.257671984 -47772.9271922591 -1629682.37892008
 1309421.32269624 1082237.52863396 64635.3717764108
 -1663385.80381522 349586.037424981 30614.8673605734
 545244.369097014 532973.622380358 1519423.47481364
 753786.151665293 977345.938446412 -1169017.25999231
 828413.068624697 -612506.058533404 -1352245.58272219
 760325.034274312 -1516647.80125122 -108098.516250647
 279236.659833905 -1190977.39390251 -1180508.25283773
 -1470426.36949196 334229.407947051 -784943.943709395
 -698326.393624420 -1351533.47604778 -758747.330202687
 -712373.115847836 -1538568.83532804 123816.326769024
 186488.701595673 -242473.056588297 -1672252.60681689
 809588.374842367 -1434340.63941697 420991.203515008
 -476142.269425329 -1614884.89002408 235447.087980305
 -125684.547020302 1694475.88195790 -54358.8088840497
 -236398.076740532 1438110.06541946 -875188.773381263
 -893441.530780063 1418690.70743700 -281209.721932385
 -522521.950649882 -1230395.14670144 -1050285.00611148
 -166465.914046213 1589329.96992502 579930.466658638
 -799699.763239639 -1324941.62397414 -703569.457648102
 -647225.274802940 -1568644.93338273 -102237.549994845
 686245.768647306 1477554.94118639 -485693.463811653
 454408.776510401 1424182.67578144 -809454.365504533
 1645318.76898577 219167.491260869 367276.134805382
 321333.623295549 1669163.31181575 -25269.3693637171
 -109023.724912857 -1455556.83142758 871474.691480268
 1013173.27652117 1314735.00927328 367357.818937531
 872699.304835654 -1345086.71446444 564922.697287527
 1559390.46706219 271668.147998561 620078.856758227
 -1127982.97020732 1156533.69536334 -529229.846485901
 1448520.45385368 -667834.823338810 588034.984931633
 -1197601.54324872 -1155017.55415478 -348833.761557844
 1665252.72224419 -277030.367058386 200468.318658635
 384492.967732637 278619.676367608 1632340.72230799
 281452.776110122 -292634.017745474 -1650802.73396855
 645717.089983838 1568718.84275242 -110320.587817053
 -311431.819034613 1612900.18831395 -437679.339962051
 1484743.63804747 -743665.310180697 364003.071019193
 312165.194823763 325467.376864207 1639092.39450916
 -1119763.61741534 -1240537.55855040 311762.741421620
 -1358195.01752471 -420339.826821086 -931998.242680242
 1508102.26984964 740115.563672736 -260492.794686819
 -1004301.06298521 1355928.73450837 206970.147174206
 -562048.428920631 -979717.121949496 -1270533.71639908
 1307.56630122016 -592095.390211816 1593556.19265851
 1671163.34270185 310228.872897313 31162.9335979126
 1699964.99659363 -9553.64259509440 5266.71335617265
 -258584.692987384 1406746.33859617 -918802.859920936
 780438.608233285 1030153.77117027 1104399.74036694
 358147.529597181 1616625.44363425 -385035.741247223
 -283796.796846246 1486773.22917264 -773928.125290306
 -727216.958775892 -1446703.53794056 -517884.512395400
 466794.789559020 39967.7307512553 1634168.04672566
 51251.0081835828 -1495259.38588633 -807200.534612691
 979559.734264936 -217294.687280262 -1372314.01140066
 780565.625229568 273454.779897056 -1485240.64988184
 -213543.670731307 -676636.604376136 1544850.15658766
 -1057330.57547433 -1101564.04338030 -747401.306192849
 -639817.131714769 1496871.79488874 -489906.998960865
 -1439552.37890057 592779.957532912 682862.263087500
 -1651840.13748682 212688.712686138 340863.127491742
 1644741.02301366 -325283.490160016 -281100.726155757
 -732841.514819149 -1533630.55918771 30341.7547808494
 -1186225.72059097 -817292.505226378 -902718.948903378
 -1698560.39284798 38216.6224090994 -58583.9706724074
 -386088.918037041 1653581.37716099 -81264.8538752219
 -538748.339057963 1375292.40545576 -841618.100243815
 -302737.033698251 66968.2254164817 1671486.02902093
 1339425.67101541 393868.921352034 969951.619730549
 -1343193.87480894 -193792.554493291 1023852.85099896
 503807.255602428 1621230.51579663 -88260.2053711430
 1662090.73758525 323311.580498953 151406.743405229
 795103.954820243 122163.140054086 1497626.74530116
 1117705.44408206 1129496.51882455 -604129.252919062
 919878.024833837 -573534.834117814 -1309535.11349687
 1138881.92268393 280023.454250304 -1230664.38611568
 846456.957769591 -1012199.21286266 -1071897.09026738
 13118.2614810907 -684072.670058580 1556236.64437470
 1078001.39003609 847404.426561272 1004897.37830518
 503160.827385456 -143029.778215909 1617520.22068606
 -979463.469296046 -1275550.25457022 551019.836648729
 1303444.08266084 1040776.52420921 328356.132927977
 1299232.86922444 -1078899.78237938 194856.899052993
 673613.619140023 823336.298503885 1326032.43990296
 1687534.19138666 -181141.385515682 -97036.8556499171
 126754.655044542 1232767.93394534 1163708.07269722
 1047837.10586129 -543953.276008302 -1223173.01846471
 466540.963243609 -747741.827941245 1453692.43251893
 742221.357848564 1475456.74612018 402659.715245871
 -457302.433859505 699754.215492848 -1480276.50183544
 870015.483989941 476086.047965391 -1380729.92744796
 1336197.25968626 -1038724.04709664 160091.340147135
 -885463.707856012 -456254.117121882 -1377601.61246974
 199536.529733430 881302.222988067 1439962.34848632
 1318837.94158713 -527267.385053092 934160.365509856
 173235.136435865 -1682166.57494398 174083.892549774
 -1515897.46544155 729490.320698997 244742.203704962
 -1265469.24994926 -123142.397782968 -1128460.68930252
 587650.445853676 179069.818240041 -1585118.59293980
 -672009.926017727 1556836.06374547 -121095.540608101
 -246809.698366815 -1644839.51623170 351550.762529027
 -673215.838246529 -1285151.16183824 -886096.454320776
 -326007.629407519 -1633677.23702149 -338847.621809431
 979089.803885799 -1242762.38728179 622032.800328517
 1181715.69099131 -163992.346320016 1211055.13335000
 -652161.964398117 1358481.37716272 786900.959520612
 676873.128108748 1450540.84913936 -572515.513695768
 1543424.36087055 399769.299866443 589937.072199768
 -327402.882288562 1180457.48708112 -1178697.36313580
 -1642199.55455729 357172.866478592 -256140.911342369
 691135.570359990 -339965.318514870 1515504.93420188
 924215.410108553 -1426604.31965915 25019.8091063780
 -863944.998603537 142279.682185955 -1457173.81647661
 111575.777624186 1435889.01772871 -903201.845997688
 -45363.1877846418 -921411.621780776 -1427915.54527617
 -31335.0063888747 1412292.35690214 945752.830294684
 774437.589808726 1137421.41392688 998257.955957193
 434148.147107629 1632956.12221737 -187001.842974381
 -1260577.59581995 1067076.48655427 402854.684420807
 1265608.93813906 286562.261369239 -1098233.16561716
 852959.329517177 -267731.981751828 1445952.96193785
 -354368.141690908 -263942.376092043 -1641571.69878669
 -568115.521831344 411855.706276487 -1548424.88712297
 -554369.254290581 1549353.83787845 -426822.463031923
 170593.427061014 1077549.54916609 1303757.97283681
 -1399369.94872582 -788958.911643261 556154.279262306
 -931688.348218008 1397796.03261699 -261003.971224590
 1215248.25074651 433872.896043876 1106763.75037135
 1567564.26353740 533284.992299475 -385161.520233530
 -1387774.11089114 -328082.695323838 925443.008601473
 169859.462107644 1687625.86730109 114309.645912988
 1095719.83043749 953672.035777351 -883123.831273015
 1605824.61918707 -230530.128221723 508117.262445166
 1122619.76127217 -1132506.57250726 -589197.534642722
 899560.181947667 -1363129.20416280 -471879.488654428
 922840.998155373 -18870.4195720533 1427588.31579303
 -1519834.39582376 -298194.868319311 700844.654526983
 585177.160439502 -281705.483539327 1571053.69464059
 553550.864608837 1504400.72852112 566003.434897640
 -415438.112683987 1612248.72225598 343606.216639796
 -9746.43992886635 -1682064.35343092 -246098.593709368
 -199480.168936389 -1198554.04944130 1188981.01446952
 -906871.745597396 646264.042557749 -1284494.61825811
 -1221197.33340349 -514503.309534790 -1064877.18417006
 311521.834973026 -1216693.55575135 -1145692.33990988
 -618153.072227011 465265.000254832 1513742.13749706
 -325225.316975425 -90291.8808772296 1666156.01593785
 -367995.349318322 1656546.61521174 102140.758322130
 -834825.051102591 845178.995407500 1216034.37442102
 -1658658.91759831 -325135.140495458 -182037.730942250
 1556620.64127574 -410606.232554459 -546200.238870095
 -1180045.03872685 -795028.895332225 930281.012470412
 952756.900624457 1149489.43865483 812974.980385924
 -1528631.51137850 650777.685312936 -360241.733728076
 1304236.07337592 228278.401042616 1066235.07563876
 -1040282.01373821 -1169092.55724586 664105.356464700
 783427.773394655 855099.215283507 1242998.89617627
 1174731.84025946 -1214779.98031891 185242.281612515
 -902285.092772891 -213087.290314560 1424947.51414437
 -257111.781118133 1407487.36126556 918081.074790225
 -337573.491906488 -1265224.33415441 -1084090.18159265
 477027.240795956 1355941.45288292 -907671.629992007
 465923.145064432 -801290.743124903 1425078.51288117
 1129951.58327697 813943.802061263 975040.976849653
 1069941.38596884 -653479.188359611 -1148124.72361323
 -682203.075760077 -217408.844097095 -1541860.03188741
 838063.354583182 1464847.56252263 204625.101774664
 795555.063488699 240582.610476204 -1482974.08894894
 213969.078106404 1656964.17593296 -314144.796692730
 -83268.4613235270 -1579976.29330186 621885.259475508
 189324.461912451 -1642922.38761992 393652.481738416
 -1007858.40704791 -297289.116177654 1336353.47597301
 1104201.06718566 247938.096159209 1268568.76191202
 950727.077194852 71386.8834383964 -1407487.81080388
 -209055.595708983 63117.8662347548 -1685915.74310958
 -366967.155578317 1510788.37596165 -687643.504867102
 -1339841.93145469 387644.861209917 971882.225525974
 60323.4950336014 -1063659.19354158 -1324760.42964055
 245898.954407777 -1320620.10159419 -1041871.51390491
 -358907.871439272 254641.214073341 -1642054.50333239
 747956.926646093 1084037.02068880 1074906.58834072