# OOMMF OVF 2.0
#
# Segment count: 1
#
# Begin: Segment
# Begin: Header
#
# Title: Oxs_TimeDriver::Magnetization
# Desc: Oxs vector field output
# Desc:  MIF source file: /home/martin/PhD/repos/ubermag/oommfc/docs/ipynb/thetaevolve/drive-1/thetaevolve.mif
# Desc:  Iteration: 1223, State id: 2455
# Desc:  Stage: 23, Stage iteration: 50
# Desc:  Stage simulation time: 1e-11 s
# Desc:  Total simulation time: 2.4e-10 s
# meshunit: m
# meshtype: rectangular
# xbase: 5.0000000000000003e-10
# ybase: 5.0000000000000003e-10
# zbase: 5.0000000000000003e-10
# xnodes: 100
# ynodes: 100
# znodes: 1
# xstepsize: 1.0000000000000001e-09
# ystepsize: 1.0000000000000001e-09
# zstepsize: 1.0000000000000001e-09
# xmin: 0
# ymin: 0
# zmin: 0
# xmax: 1.0000000000000001e-07
# ymax: 1.0000000000000001e-07
# zmax: 1.0000000000000001e-09
# valuedim: 3
# valuelabels: Magnetization_x Magnetization_y Magnetization_z
# valueunits: A/m A/m A/m
#
# End: Header
#
# Begin: Data Text
 1238725.44512977 -668728.292417529 -953080.134358276
 -877974.143967805 1271973.87764299 707985.774657842
 930454.390902882 941841.710361961 1066390.55653733
 623592.363749870 1359017.60788877 808828.600706690
 -586113.284020842 284559.617812045 -1570190.12931714
 -1633743.38853980 -22270.0985662688 469453.494088979
 488681.446502285 -48797.6031121243 1627516.27880490
 1590366.74586668 219763.768334949 -558961.089673192
 1343889.61650099 387149.174477351 966476.184581038
 -779439.265366482 -1415425.86173444 -528246.212989990
 1226284.85556575 522560.319350537 -1055062.16198400
 -269512.753532901 1290609.14948826 -1073168.62558514
 937239.438506697 -1283385.15909848 603742.302902017
 240707.817847769 1672106.20936277 -190054.126599304
 -855479.758344769 1451848.07507665 224257.775692618
 386303.252432347 587111.122062827 -1547924.52254957
 -1214670.51725443 925990.950692214 -746402.233215440
 1478618.93180223 -749767.317342640 -376211.409131674
 -1019378.36921627 1330991.12732296 281656.456275239
 -1449823.95840973 766550.954510894 -447671.892974730
 1510281.07301425 -731551.607479099 -271814.874665951
 77045.5962571204 1596291.91411600 -579582.695588186
 1412767.77128604 945130.971060616 28542.4588552492
 -819723.725232690 330726.188326048 1452127.13033190
 -700097.014209616 -1454768.69533971 532458.649807068
 -585881.569737118 -680816.391464417 1443340.50984365
 -486004.962884134 1430923.48264748 -778625.174817774
 1020340.70839560 289588.512395896 -1328549.33377692
 -4120.61876930463 -1377287.85005130 996524.559959272
 406311.930638537 -409402.444120977 1599156.10675398
 -383843.978143220 9582.69329290452 -1656071.24618250
 -63758.4488159831 -1669245.14556575 315524.173732783
 -1308023.92934238 -66730.0969784677 -1083799.10242856
 210292.716233288 86020.5172424777 1684748.48096461
 -891276.677824536 1378979.80341935 440500.380621374
 533018.906649461 -92728.3769164647 1611611.70672983
 -788449.286344772 -632094.306221537 -1367042.24912939
 -1390678.97756029 -67889.3553405126 975398.901374874
 1393955.10098129 -86061.4569793178 -969269.107147669
 1480509.74134715 679441.941804600 -486260.787533786
 719490.137398769 -1538802.12527642 -66497.8302705032
 1478129.04472852 -537325.783983315 645302.664644028
 1417696.31199850 937377.973987026 38206.0313277933
 -1005785.72708505 -1292616.31895431 -455563.522645307
 219201.497422246 -1379563.99916590 -968893.118838824
 -1113892.28480260 -1275847.07550910 -146486.237483681
 780527.981164521 -1211707.34367789 -901410.774229101
 -795657.566765104 1501209.74400584 -57431.1844849320
 -1159401.57171918 381452.170847340 -1183335.21744725
 1289900.70753550 -149521.386799969 -1097177.97990519
 -1179499.11963716 -629501.270913657 -1050004.75079557
 409718.388578474 245759.770331767 1631481.83481985
 -31373.2447789837 1123665.63312781 -1275300.46045609
 896238.056949771 -1042161.41304933 1000328.41328532
 -639034.691388074 -1274373.03574016 926071.287202540
 -205174.707696741 813263.095921602 -1478684.03526026
 1328606.49164141 87728.0883067462 -1056933.57070837
 499349.720821361 -1547447.85158949 496039.315908215
 -636975.493776543 316334.871270501 -1544083.69900935
 -783114.591319577 -996432.235412830 1133072.96194577
 -1126586.38626046 -1218119.28071579 -370119.618827523
 270244.442084020 1185500.53885731 1188089.39642256
 375053.211111308 -1074147.12101515 1263148.07178334
 154181.587623029 -1485113.25225551 812814.041471423
 -838548.614089788 -1424684.25942652 -396372.277979179
 -141731.879854839 -1693469.73326086 -45522.9256771774
 -1653596.11277025 336618.946623756 -205688.066267932
 -1018843.30867249 59336.2703534781 -1359572.55025020
 563461.383827941 -632680.072835440 -1473847.75142199
 -1502608.65232058 -764653.520322647 217881.233311917
 -1232707.36932996 -606454.641868257 -1001321.78092562
 575150.304242909 -601373.265329686 1482414.35613529
 1381422.64891143 -765348.521286426 -629216.263330194
 857959.483193688 -1381156.18811713 496299.414893652
 1164263.81149130 12207.8417771823 -1238685.08744188
 243055.636794287 -736312.035437401 1512867.65577580
 20217.3033445710 802038.165702275 -1498774.84680068
 1459403.66117414 -871156.101087659 35042.8493314152
 859636.648632823 750284.468010209 1260197.62314883
 1198433.62452493 -172717.912914847 -1193283.44083305
 914788.662264300 -905296.895911466 -1110675.12515846
 -1622857.40538847 495574.193411082 -103634.263642615
 1509534.61627932 297620.276981894 722998.902477495
 171094.030615656 1362428.92667476 1002254.58464781
 305566.481944992 -1593558.32293654 507149.875787663
 -1506388.49101906 -547110.080664512 566978.195136819
 329305.844487618 -1657549.28412784 -184629.443679982
 1579441.33112171 553355.414359388 -298601.518655939
 -303057.646067556 -765173.283892308 -1487503.24664434
 -183038.384468679 1178374.61403185 1211581.70125517
 -762620.548753401 1515892.24490051 102374.803880396
 -353975.834571975 903444.426653509 -1395882.97377960
 -1518416.43497653 419006.152659354 639410.176668123
 -16005.5094850440 1383278.00074033 -988071.756672540
 -73454.4428913914 -1150640.41866839 1249252.20501952
 1153981.74549802 1245120.94973391 -89442.4484854302
 -1318989.37147065 772537.619983129 -743943.992285882
 -891803.542857567 1158448.16204229 867573.799055459
 -927178.957652063 1404071.27463847 -242740.676900948
 84553.4549837993 513221.734321430 -1618472.78774479
 -846898.065661746 685767.952298460 1304793.46334152
 1394707.48649647 -498771.082134575 -834277.192986238
 -247278.005658829 855787.690151294 -1447923.00116508
 368456.207810645 -425271.694523501 1604177.05031674
 -430511.399944335 149922.219919816 -1637737.23853745
 -17871.4500458758 1033315.84065377 1349792.20057283
 275924.211925098 -1636811.28359552 -367034.945431486
 608178.283718814 123695.751229615 -1582661.85154649
 -1531464.57226121 474159.263535596 -565499.121760735
 -371794.534567352 -1591019.20880153 469496.220741334
 1683878.86937697 232202.146419525 25181.6692039228
 799485.899349816 1457396.87836376 356113.234346032
 1215124.25682767 785559.953380383 -892394.867821421
 844532.000209034 1057723.15602867 -1028585.15730282
 -336406.703006973 -1386403.60145047 -924508.293125128
 418692.550999406 978672.558794885 1325479.75103337
 -301030.334758005 -537148.012535531 -1584567.05449300
 -1383852.36644424 58160.4057345658 985682.502173734
 838437.106648737 -784165.016240467 -1253837.48767497
 21377.4534156099 -1221041.80954918 -1182624.16000111
 225210.254364298 1653863.39140120 322515.463058865
 73648.4806440870 534727.898784647 1612030.38915530
 -205945.343326070 1235436.42684569 1149470.90036463
 -1490962.50647817 -15667.4821132137 816569.246469993
 -245732.691047959 -1375342.36491262 -968529.206491420
 -648789.994501614 -584937.671867832 1458396.19550534
 -672176.494529387 1460035.79937665 -553601.142286360
 253431.519747017 1668235.19798686 -206794.073891033
 -40960.0956195649 -318622.567563047 -1669371.71714582
 881306.799966356 -1203611.58003110 -815240.755082883
 -1634317.94575117 466615.740961581 35701.5753510479
 166654.779798361 -1672399.63988618 -255549.660299020
 -280695.551095933 -1676562.74470055 -18637.8828489769
 -892098.594308527 -1336208.28249791 555614.546080957
 -219535.735910445 1328180.47023469 1038142.90882585
 -769802.774298170 -1428058.45471111 -507988.915834735
 -348182.921812833 -473751.915680015 -1595094.91107814
 -394674.737517539 -982340.197355227 -1330127.65861986
 -506053.713034616 -1383476.35134555 -848470.874450902
 55911.9901025002 6548.34447741613 -1699067.67627054
 -1148311.37659214 1247851.79384413 119360.307426967
 935783.898307426 -1072951.69306679 929022.690795900
 -1066315.82778411 772851.506658970 -1075021.44354057
 -1034205.88762394 1271730.24303354 450688.773942547
 418806.424143536 -1211223.18784479 1116933.10825815
 -1385319.40800923 -304016.059888990 937264.302703639
 811803.237994228 265087.113353366 -1469933.44241026
 1337867.48389565 -418136.004514026 -961911.054757028
 772325.126626328 -94898.3056583653 -1511458.96747639
 -195247.920769586 1304861.84170806 1072013.91011936
 1514178.38163144 -704113.678080203 -318571.431456664
 -55638.3440251991 1280584.29904504 -1116695.22597415
 1685051.07500395 204430.418596200 -93867.3456566109
 -253603.131950801 -42115.6138853578 -1680449.85838073
 1378315.39777071 605929.697140181 789364.216564047
 -927342.824177527 282776.244916829 1396450.09998825
 1683740.72562756 116299.192969282 -203695.033267547
 330025.323574474 1589324.32850627 -505105.399513469
 420181.548064620 -284239.324275179 -1622545.98492666
 944929.379846569 490973.069243508 1325161.84384414
 1056794.96488816 1329562.63699329 73807.8349396494
 628066.170736698 701986.639206905 1415184.66764982
 340824.866693142 -236623.886266276 1648589.56283602
 845222.663095275 819301.913219260 -1226516.62230293
 526495.472586259 371669.506356820 -1573106.57470835
 -1548715.45127212 3055.71509367072 -701050.007914027
 -1423883.15207670 -767565.481064634 522876.659940131
 -1324700.62213095 -193806.350832315 1047667.58091627
 -696916.619637422 -1494440.88966648 -413465.418827256
 184546.065271700 1594758.20782663 559186.023039150
 217850.433552529 259509.967899024 -1665891.88279493
 336952.536734648 -204553.799148028 1653668.86988967
 1574763.75315161 -630307.613450157 -113275.920594855
 1466534.58863368 -304031.392893780 804264.392147333
 -1189784.86943873 726085.828882737 -973247.827405916
 -1154541.55922940 -1247704.47372375 16350.3596862821
 -107671.220990569 1259261.55580658 1136955.25076320
 335661.928448513 1664977.60655727 -71976.6590851174
 -156702.618222407 -1150673.66235312 1241529.06216854
 1596507.19737262 546284.711823278 -206731.183824729
 916811.124921781 725939.788088202 1233883.61902171
 -1113791.44612223 -1057584.98931716 -728685.532253776
 -535118.964594728 -1209662.01070134 -1067878.97890963
 -147987.622540857 -730119.946841432 1528078.70438632
 -83025.2663353533 -1568706.07999604 -649821.544528491
 -498356.222083276 1019741.25509525 -1265610.06971644
 658591.607261912 1557135.79584832 177722.278097028
 1476490.32292327 543306.410367426 644045.394958773
 1187778.78660353 -1093176.72883369 533053.649861915
 449566.949050898 -1573143.19848226 -461638.424949735
 919739.905081299 -1156845.82678247 840110.849862702
 -1019005.73160998 -228424.199659098 1341435.68759599
 140438.337520848 1690891.20412665 105659.874888819
 655924.847729528 -854140.157920457 1315373.40126620
 998.655765051924 977494.774860397 -1390864.10831802
 671278.518210852 -605593.114496521 1439667.36806217
 367082.383736973 -1536526.08575577 -627963.463381465
 -685137.079483325 -1284091.29767591 878462.703562337
 1434855.28197295 499257.263655908 -762845.006853383
 1433832.11809130 -912499.083844669 38352.0418292281
 -707515.790664231 -1084340.44953406 1101647.49147132
 -906510.967141218 1109158.54951688 915426.227768413
 324022.065641426 -1528887.23865047 -668964.507630408
 694064.280828857 1230880.86266346 -945096.331601375
 -216202.162355447 -1610545.80664857 -499398.467838592
 1342363.51338265 -858886.606638233 591923.977277873
 1179023.20381129 -1055225.95125153 621612.802860314
 -581192.380640060 1545498.27212799 404537.399427222
 1656234.17494718 -213643.528521019 -318189.881137229
 974419.061218648 -1104654.69291444 -848672.788862635
 -1624649.44057573 -241564.594596011 -438361.428360940
 -1431174.05743667 144863.101824254 905955.572337905
 -967800.500639591 -1326160.80217600 -441202.581286273
 -507511.238147501 -1080294.55864647 -1210535.42274186
 -241881.247210697 1627024.50468159 -429283.965940302
 174647.360362080 1143301.00686614 1245937.84243735
 1026112.73008444 -1276756.10401481 -454957.707946111
 -1088238.51986964 881209.545420515 963953.661195233
 439602.497597301 -1100882.81656471 1218526.43315554
 -1150364.45023140 -1108707.88118600 580885.931866021
 -991592.727486870 756727.126924030 -1155035.89475499
 -1389368.86366617 -611278.209787139 -765501.868655074
 826309.593271148 885840.309830930 1192685.79330296
 1635824.97857911 -17996.3412715106 -462334.047153684
 1272722.91273115 -244756.680545412 1100122.97255240
 405976.483267579 -1168159.31543288 1166441.98689908
 39968.9195979889 915725.267866483 -1431729.62505392
 315820.258587755 -1612115.04672786 -437427.297249706
 -90172.0894370382 -1315880.49066925 -1072533.22958434
 -1047888.78019535 -400597.595237681 -1277282.53375300
 -1066927.85797783 -559658.070726790 -1199353.07134355
 607206.321011665 958787.862619528 1265711.78323383
 -369013.879239410 1428347.48678811 -844779.387718927
 -858955.040895459 1422500.20965286 358733.036195219
 343147.854450721 1557803.34565775 -587791.022595086
 -771259.423872108 -823062.852957359 1271898.75429224
 -705106.882637090 -1544068.31960036 93152.0717125218
 -614911.023215407 -1252554.02072597 -971078.193912000
 1355162.14327024 -893854.638904209 504538.848808124
 -1197115.94619136 923389.085301344 777345.488518913
 -431327.211707186 1571828.62165830 483023.416178419
 -1687013.43668787 -118524.343827356 173024.981880835
 -992914.129298288 -1254004.38937187 -575842.446573634
 1595007.46975837 255521.737249427 -529773.360228739
 -780785.191345052 -1245328.80465783 854125.665968283
 1398985.52277129 -799854.540244401 541361.451829325
 108037.153561530 -1407214.18539945 -947668.829212448
 1582407.66368426 574154.126948491 237345.790822905
 122893.778345399 1655439.12919929 -366631.161741471
 974574.650085230 -415001.617706646 -1329653.30395262
 -900763.261078598 419612.725647777 -1379329.80391402
 517333.757732052 1608963.82043926 183306.321844956
 678094.006839841 -759464.651750916 -1361397.06207585
 -1148288.56330195 -1102060.03057642 -597408.624306547
 17887.6228821527 -1627268.19788600 -491607.816350067
 93214.7082019823 -1071883.84873534 1316197.56609528
 -599447.627107718 -1590733.65986383 -15131.6136330471
 328833.607302972 -287477.879841858 1642931.80847829
 -1460296.15442843 -855653.936632934 -159347.049191672
 -1077915.82630465 33493.1956959921 -1314144.46589560
 -101064.915141843 105577.146114624 1693705.80359922
 -1247156.27232337 -1142484.29908700 -171262.543319213
 1244376.28113956 -727369.329639396 901366.478873718
 -513009.011628596 -781809.595569262 -1419716.70070605
 518461.091042345 -1147514.31981867 1142107.25542143
 58899.2970294854 1548871.48397698 698232.052352488
 -306071.847609067 1535237.38845105 -662847.030017622
 314757.992909345 -319243.070104425 1639820.49874063
 1314916.11891817 1037941.04068323 289264.578326826
 -910289.124559093 1424631.81338733 -178319.673603824
 1092248.46103758 -1165166.21380170 -582564.154043182
 -1451680.08451716 -692430.589067610 -550604.042429523
 1237499.42410714 -810081.477451592 838071.103919204
 1630548.95352213 26935.7807425288 -480192.225971716
 722934.076671797 -1145393.27756217 -1027346.36832087
 325519.600871117 1483493.93294729 763729.494230310
 1042909.70522213 674103.550372472 -1161001.18437869
 -112701.418897395 1322230.70649670 1062546.16322104
 1513479.89900665 136494.570587015 762068.125237562
 302381.344965186 -1328795.14876491 1016301.61607462
 -1243174.47633402 -553775.409695053 1018749.24147639
 707297.973670007 -1284745.41075910 -859743.453581204
 249731.525114433 -1345802.42143415 1008191.45395405
 1022066.05755283 1308620.78444828 364544.395798912
 -230620.444734925 1188643.29906880 -1193290.12316750
 897562.623806152 1259206.27677091 706244.213347599
 230742.142873060 1460672.70923788 838566.216818938
 498510.034414598 1589045.38151759 341207.445794450
 1481703.28505022 -553117.751036732 623390.831308471
 -1030682.27283497 248543.368148985 1328879.31980782
 1402705.86494471 529010.275264976 -801601.138418473
 1526608.91728386 679707.811593710 -312189.853339105
 -552004.098550011 -1489659.89624965 605148.633551677
 -1444715.45725912 -223250.620772101 867730.607897079
 904956.065351634 762666.973287264 1220407.14830754
 -1115048.97057693 -143660.082433628 1275157.86235685
 -1452336.51462245 -774907.863961110 -424542.637040795
 952373.856583563 -1074073.55972623 910686.568251211
 990446.998375547 -1323020.68929351 -398285.072668048
 -486160.432342912 1613047.47321950 -227433.249909384
 679875.320572680 460553.690989232 -1488509.26977039
 -1610880.38170104 278636.223062286 466289.878775314
 890020.972497022 -1015561.27799817 1032713.88058173
 -1497332.97477899 804940.665283241 8030.44288118202
 -1019975.20667010 936055.561358629 -986635.983444685
 872397.743773731 223429.419670518 -1441874.29101299
 330164.359902746 -471265.653392760 -1599656.26913481
 1530664.80182123 618641.036945574 -405399.225298306
 488499.584005804 833765.965613947 -1398643.08206561
 1358075.66290189 637203.088340869 799751.660231125
 834787.858688477 1239619.60860607 810229.879074841
 930626.993636932 491535.539414285 1335037.90665546
 1162466.87382194 668426.836762015 1044928.86416396
 -287962.927468206 1435712.50464918 863601.155857211
 -1640838.87759871 246511.937625588 369972.488664608
 223468.230427598 1526558.74324969 -713919.010390874
 -885777.742622659 44499.9628308536 1450316.35996508
 1274974.54165020 87372.0440459096 1121073.61224100
 192023.703627465 243175.024268416 1671524.09639145
 -1126007.07284866 -1272561.51488487 -51915.9198004355
 1251200.93696225 -1150615.79306515 24073.0574260637
 -1275827.01419130 -181805.029965559 1108698.49866361
 -895826.112365334 976739.692958261 -1064647.89888686
 1302892.03215311 -843203.856261965 -693887.317463651
 -455649.300956345 -149776.955713540 -1630935.49169646
 -1452323.80740914 869438.912942621 -157580.249694502
 182090.557021021 684244.799908312 1545526.47432589
 1257075.25428109 -1942.19481812366 -1144446.60554934
 1016009.02084758 -572113.708475003 1237098.04548036
 1578636.42183267 246386.028992879 -580690.082901772
 -1218321.26665919 -288234.247908922 1150049.69872538
 604439.307830891 -478513.772042137 -1515149.39630220
 1402422.32637606 -851348.925405596 445439.811526433
 -1450298.17040512 869106.872078629 176885.448314027
 589219.102199291 -450287.574871419 -1529726.10277784
 1421908.27269330 -611252.040129189 703240.931320318
 -762996.698494072 -653125.568609034 -1371591.42229611
 29577.4560254915 -1639817.17826130 -447353.099882183
 -1520960.25466263 -685692.695278201 326351.698905812
 243507.590196931 664999.420326419 1545470.74526890
 -543065.976490301 -976681.674279367 1281082.45335946
 1545247.02654738 675248.931429779 -215059.311701250
 -80524.2369608975 1220562.02483646 -1180569.43497152
 1291148.32363587 1103235.30257115 -76209.4058041586
 1253148.94292970 -1078025.85479111 396834.957175000
 -192162.274526847 -245829.752297938 -1671119.80214879
 662240.770019732 -1089119.53853227 -1124835.89616927
 -110717.930899342 -1537986.38915311 715778.881049967
 -1461316.00978507 864385.304916262 85985.8371515718
 -664850.128120623 -1563144.82109512 67472.7754096986
 -1306253.97419402 -386059.968641568 1017181.52535071
 1487905.25699703 793898.508998661 -214156.726745402
 -1033000.53691910 -1309540.68802068 -328653.430140601
 -211311.426842600 -1634276.56022606 417717.135848422
 256818.185472358 -583547.988981172 -1575917.56261764
 -225444.914400588 1536572.05951600 -691462.867033131
 -392254.933339749 -1168760.54185895 -1170527.60030005
 -1636674.63392644 236725.798948599 394026.698047122
 -1035355.51741967 -164110.194452298 1338322.38142589
 -631192.200714015 -1346889.28446497 823095.171381319
 -197031.560077091 270200.274131699 1666784.44202985
 -149226.670883970 -1293254.68189554 -1093262.88167675
 924325.178120559 1134804.41471680 864778.529700903
 -1665105.92860106 8987.90330278044 -342551.403634296
 1688726.24863553 184188.367731371 65408.7330700767
 469811.770494247 1555440.21045551 -499882.638229400
 1380576.49385452 816547.784340281 -563256.833518545
 666482.300648381 222084.378765745 1548056.80504001
 -827780.172818318 -1059152.57095516 -1040661.24023525
 -999747.524921816 1310244.02512019 416851.869432724
 -648380.476900929 -682375.590270390 -1415615.17050958
 -352355.612281795 -1574310.83546293 536088.533581462
 -808977.271864913 1388241.28065789 -555285.440366803
 -289980.656634267 -493019.202374235 1600888.27994593
 -686190.276687842 -454364.117876286 1487513.41256661
 390088.320765701 1588807.60918196 462083.848460097
 -800522.244575538 1451512.89780079 -377192.846509160
 -1477869.62006996 840014.397309101 -16649.2758910941
 948963.211803815 -726686.946068935 -1208881.67537439
 -276246.395432705 1676485.43812831 55538.3178909981
 -331977.291498076 -1500851.83633023 726109.387980752
 -711711.945120755 -1285789.90863912 -854523.503488490
 497670.164829826 1601607.21384025 -277810.618251220
 844631.123246165 1467716.50413541 149688.106182366
 888367.392020317 776409.446043643 1223924.73170911
 230626.992925747 415854.887681016 1632138.44465653
 -417641.564806062 -1605219.49120530 372620.327412444
 -719877.201776943 1535259.93496196 121465.000977183
 1300849.79439347 -1000831.69256805 -442860.853517041
 1556632.61678378 582984.223132553 356404.674412974
 -1060080.89676752 311199.371539938 -1292046.22342303
 1044359.75023467 -1160402.16253443 -672888.945722248
 -573187.246272033 -888903.881864009 1330904.30516930
 890090.104907640 792193.920854646 1212505.00902324
 560992.777107112 606263.380476442 1485843.80657151
 762172.697235393 -210102.991133808 -1504974.92095568
 199876.605141701 1680849.43868461 -157462.716827429
 -1372052.02535427 867635.526123291 504660.116841044
 1651638.89708046 28417.9061536966 -401598.526218248
 -397771.110859802 1286868.58887601 1037182.42287923
 -512939.378811291 -1460206.79447610 703341.532280384
 -1599003.52540847 338309.570633142 -467690.453344186
 1659517.40228909 -272012.239625030 -249020.748119184
 -887355.742983479 910099.136962574 1128857.54030091
 -1345730.53894998 -1032444.28357793 114315.868735026
 142912.134778319 -144653.838297081 1687794.83018494
 1346495.57375049 1030060.90862885 126191.102638193
 1128352.09416376 -1137593.16388439 -568069.841727017
 348720.753641993 1589241.36682959 492651.716669055
 -991059.618064225 436789.835145997 1310349.37072352
 28880.6691901317 1677407.08978788 274720.516300645
 -807124.360437094 1463314.23106790 -311868.125885219
 -632927.152535214 -1576317.33133767 68021.2504158725
 1688294.73665196 -44073.0857623465 194212.371657055
 1105523.42678339 -1283243.36036441 -145273.641496908
 1188847.54612983 842821.812344818 -875381.576626380
 -316896.930485628 1418793.42684143 881249.991432811
 -137165.127119282 -850824.858103140 1465360.97557432
 -1623547.24349878 -502962.334665580 -33514.7435507194
 -595498.805798997 1314556.51544973 898511.179663693
 -1123773.65989593 1169575.50233376 509142.323584306
 -1655522.87426666 267980.055311653 -278263.728744887
 1500765.67132798 -523853.153128721 -602727.362677819
 -1116124.82956725 -316341.510147654 -1242655.79054739
 258898.679208525 -1316145.63459848 -1044381.22466437
 -1547773.76812077 -536705.956428519 454250.018218354
 -926461.725485723 1306413.00712672 570047.126139717
 -792210.380581335 185698.817896634 -1492621.40609432
 -669518.747249818 1562604.72265292 3335.83930068744
 329215.034707704 -604116.341407332 1554561.32299984
 -1400118.10256895 422000.012657670 866940.187196131
 972740.959255487 1215896.87656712 -682180.190082534
 1563009.17882576 538551.864089849 396187.072721683
 224790.517535617 1093728.94088473 1281883.85866163
 1618402.39841790 332336.745804427 -400407.247915579
 -495907.880764368 -31134.6098443975 -1625763.20842416
 468637.507897497 1133919.86639070 -1176692.23792635
 99811.6230679220 -1647095.04237684 -408797.702143974
 155252.300294933 -1389508.03473115 967038.853754449
 1271445.26458237 1119270.69230343 143736.065486979
 820558.796578777 794717.393544634 1259010.53440979
 -1053344.22073062 -1332651.43514635 -67127.5283008649
 787660.239500431 1502302.98948873 -112592.516995324
 1582365.21000804 -8665.93608493536 -621325.392775786
 -201086.394225285 581574.270016785 1584719.41696690
 1519642.65102081 185429.614784478 -739122.500780026
 -1092957.03179858 1301309.26749059 -45156.5829657615
 797501.139572932 -285823.965255554 -1473871.29467449
 726696.574567837 -296027.052108073 1508071.64051698
 1212743.04237528 1124467.04486872 393482.119256466
 681919.331193654 594963.695474156 -1439098.40761921
 1499909.82202790 790511.567166347 -123943.486962555
 1559571.04285591 -498827.216293236 -457066.264966564
 555269.235175046 -1424001.60993361 -744241.554452998
 1290082.97428935 744018.852879160 -819830.388561629
 -290510.722611438 -1517811.00135310 708416.038934242
 -922906.103977975 -1427317.57358539 31762.6726598771
 -1563653.24500297 648157.953610367 -157733.308350871
 -1150969.71454601 524081.351284751 -1136049.05414926
 -463734.460419758 1457732.94555357 -741596.257856592
 -933664.739904605 1100929.72882484 -897899.708012278
 111100.772065779 -1442292.07491761 893000.665775924
 -462385.857372735 -155566.252612145 -1628495.76602148
 1573632.16670673 -124586.686185265 -630999.177124062
 422657.562872355 -1634208.59319751 -201799.054671280
 1509888.78064709 661199.722882652 415993.745789457
 -907243.887600225 1357728.82471348 472737.735910927
 957784.287712096 -184541.616419490 -1392333.88597029
 1412484.46612933 559439.796533751 -762833.367779371
 -994397.914670949 1114626.46789882 -811653.019681110
 -1413605.83804768 767636.013507073 -549957.712378407
 618424.336958807 -868481.819381601 1324118.82731902
 1112739.41203735 -637447.911013303 1116006.79283038
 -1581422.44563964 -597257.155847307 179963.713610105
 -678765.636605942 1233545.79275852 -952702.465479481
 -1049092.07278480 -1301467.01508678 -309175.405653819
 -996762.509730480 1073905.96642969 862084.957798537
 352489.882947745 1522993.03176165 668014.301961371
 431914.381943615 1644216.10113980 -1838.32067309711
 -1676998.94480582 -269843.442340773 69706.9275312013
 -1436399.02920579 -173690.702616086 -892518.553712690
 938516.463056412 -157066.495845823 1408728.84703012
 -861204.711934447 279261.782145327 -1438867.36747169
 -1060138.36001161 -747763.451664079 -1098615.70987644
 -1094580.66058840 1262214.84240734 -314176.493507175
 161653.383953846 1148839.44988942 1242592.49226528
 -1630076.90438247 -407290.102775588 258774.144728418
 -206467.464935275 1653197.20950844 338097.873990209
 675855.560390356 987620.598389600 1207404.16395091
 1100681.41555090 1051508.39369371 756855.679408261
 43076.6317444485 726532.481376494 1536325.14699932
 -602026.680865493 1470278.92723146 -604850.189439660
 1225932.95638397 1024432.28007118 -581056.701191743
 1076852.45549108 -1315432.09378761 5214.95315359253
 -11035.5618448757 -1651800.41899744 -401787.994064837
 209299.575104027 -1491177.26341513 789039.959023014
 1141643.99090057 -1242540.92551117 206739.078237410
 -1634960.88435763 464807.585263254 -29271.4075894334
 -25141.3413534297 -1660890.59327996 361677.135175942
 -96720.4311874948 1031191.86369844 1348068.43239987
 -147309.016723366 1635419.35289611 440117.704443764
 -538027.926215480 -1437850.85633691 730144.414169882
 -166339.250783850 -956745.017643898 1395338.74914382
 -466549.400865422 1442579.85041694 -768957.106556122
 -542538.617733323 -1594747.98268765 -228977.553445046
 472384.974299642 -1620374.60744529 203072.813548402
 -1453036.69375840 452091.793696215 757824.106679254
 96723.4611378855 1227882.81058036 1171728.79777992
 -288666.603776630 1425901.27567159 -879475.493633680
 -1298694.95232191 -287747.819793206 1058580.47073326
 -1300221.64628803 -32933.0289671676 -1094686.75251283
 -1078061.57344665 -1173571.13317382 -592042.261362191
 -1086193.21144918 -628691.390449278 1146704.60144567
 1053103.63744389 1219302.42519453 542470.574978218
 -536866.804091169 1004768.71828076 -1261829.56750481
 535340.541849303 350779.949920694 1574917.11876725
 -853318.378530732 -1423848.50096338 366746.767083242
 882187.069495892 1368815.79363626 487943.949143931
 1508084.44282776 -771421.043700522 -143495.249527199
 -667387.586217713 -50390.9029423127 1562707.44756117
 -1217502.55313394 1174845.23070277 165608.626005055
 -927182.638325278 -309164.262686082 -1390952.84386853
 816280.533219148 823227.523622481 -1243375.46036499
 -525065.939199232 -88909.8179254378 1614435.13458091
 1559546.70404320 393020.265298571 550771.412631995
 1242321.61360902 -745048.574502518 -889685.129690082
 979971.695951516 338494.762910404 -1347247.85047746
 928041.944563952 1371890.14774228 -382956.357379829
 1554177.77436763 399669.131602708 561066.868479692
 303766.126292716 1632168.25992551 -365722.451879636
 -670445.395699237 -881097.935856501 1290026.89848511
 -1236800.56977221 -1157855.50797960 -140338.780287042
 -1043452.92309796 994320.120795571 901406.398168662
 1004896.32054923 -1261403.99200982 537627.523373114
 239662.642248892 1367595.20297701 -980940.965963060
 -1127046.84535499 739213.611534448 -1036015.75513964
 488613.796074218 1479523.24275974 -679902.590390454
 -637155.779679397 -1561706.42936713 -212380.650941891
 801359.552534375 -743360.857756128 -1302012.86580355
 -761394.393618052 -854836.855553609 -1256794.54476625
 -301119.367775503 1268811.83985843 -1090616.17509807
 213064.603080888 1682337.27149469 -119769.695055919