# OOMMF OVF 2.0
#
# Segment count: 1
#
# Begin: Segment
# Begin: Header
#
# Title: Oxs_TimeDriver::Magnetization
# Desc: Oxs vector field output
# Desc:  MIF source file: /home/martin/PhD/repos/ubermag/oommfc/docs/ipynb/thetaevolve/drive-1/thetaevolve.mif
# Desc:  Iteration: 1835, State id: 3679
# Desc:  Stage: 35, Stage iteration: 50
# Desc:  Stage simulation time: 1e-11 s
# Desc:  Total simulation time: 3.6e-10 s
# meshunit: m
# meshtype: rectangular
# xbase: 5.0000000000000003e-10
# ybase: 5.0000000000000003e-10
# zbase: 5.0000000000000003e-10
# xnodes: 100
# ynodes: 100
# znodes: 1
# xstepsize: 1.0000000000000001e-09
# ystepsize: 1.0000000000000001e-09
# zstepsize: 1.0000000000000001e-09
# xmin: 0
# ymin: 0
# zmin: 0
# xmax: 1.0000000000000001e-07
# ymax: 1.0000000000000001e-07
# zmax: 1.0000000000000001e-09
# valuedim: 3
# valuelabels: Magnetization_x Magnetization_y Magnetization_z
# valueunits: A/m A/m A/m
#
# End: Header
#
# Begin: Data Text
 -225397.187929133 -1614168.78022188 483378.998954921
 -1116917.16103585 -633888.596112929 -1113858.74468067
 21085.1621524902 1694859.45815338 130410.249003022
 79788.6495776230 -285334.204980337 -1673982.72478148
 27622.9090089086 1045333.16655331 -1340341.57803207
 -134734.882483251 -940738.899871801 -1409559.09195401
 660019.344119920 -1050255.93889291 -1162470.18379298
 -1625529.56335517 330652.432538022 371917.474065195
 -755363.095954620 -1318966.79389967 -761415.254548973
 164984.181208960 1162242.91984440 -1229622.54989992
 1191945.96406753 -357672.729269633 -1158160.19508526
 -1150358.34975899 -1250737.74935395 -48277.8363308390
 678506.112353774 -980808.495810971 1211463.63958791
 -1160046.20815598 -672954.419066402 1044712.94851836
 -1197811.22830205 -772702.874833777 -926379.257419530
 1366630.52086374 97560.6579963529 -1006381.10944862
 -644152.004700426 -247078.058263828 -1553711.88705146
 554761.656948115 -1158706.59232900 -1113390.55900142
 586935.638002599 636094.440008464 1463178.19155180
 775763.214852561 1388460.28180219 600307.821321209
 155887.085078462 1475663.01380444 829528.713424285
 -1282039.91789415 -886393.003311267 678734.920721488
 1246581.25260655 226997.734318065 1133361.02335679
 145044.565169563 876294.825083309 1449506.62421632
 -944480.953742345 959550.023730094 1037891.84406542
 60346.4823410691 1450815.86048362 884020.158728433
 1368185.32932649 573469.723582148 -830181.534816565
 -32837.0202468323 546602.718591396 -1609393.42552709
 1305740.87086258 1003873.54144374 -421044.761216936
 1668322.07964438 307796.284283202 109374.978640024
 859893.886937429 365865.174362878 -1420114.49446728
 211063.003787803 -1673473.79844067 211985.505081419
 -1629961.72074905 447894.265498927 -180597.662847485
 -477172.268553431 -998234.030238662 1290672.47859287
 -609189.785160989 -991236.484655264 1239491.03955768
 1364628.98608333 888603.019656328 -488029.101385193
 -42958.7244134982 1002338.25052372 -1372396.65532010
 -870394.638083736 783486.141983039 1232299.73598781
 963257.708513889 1346743.91740316 385247.203657811
 952706.876975697 879141.825787093 -1099754.18013070
 986959.423111309 -1184705.81681122 -715809.489141810
 -257411.258183798 1075431.47919164 -1291195.79372143
 1473987.15087047 -246910.488409414 -810183.367998982
 370089.032851092 -550025.319130852 1565409.29346876
 1624691.83534010 -100764.568284724 490125.434922124
 -1667835.73357818 301617.240611865 -131723.217260404
 1573493.04631394 548285.809237307 336901.030854252
 -1058111.62559797 723318.312904348 1116785.74757722
 945935.660651857 273630.879203124 -1385760.39337746
 1574942.78790282 -180575.768434433 613960.590500068
 -172190.331930670 923373.306050677 1416944.68038193
 -992097.975903358 -567752.584748528 1258331.67675292
 226717.627308873 1490410.52427063 -785668.878479212
 -621638.659641664 704130.402687025 1416956.51057142
 -1606124.76192473 489808.893310378 265425.125348554
 1595393.30732581 124930.682411489 573683.292010674
 1671146.03686071 -269484.170580675 -157000.653792210
 -556889.315578874 -1600693.17623538 132874.548908295
 52425.2237490627 1204362.65953637 -1198650.14922176
 440421.137420223 1483327.43108104 -704108.623662564
 908327.305385192 1338583.29546698 -522624.403743690
 -319346.703282575 -1493548.41954896 746545.913903060
 -1651967.75873681 -394642.555246633 -72524.3247640323
 696992.572228364 -1397333.56613779 672056.738083271
 -919883.849667820 -1061727.01153156 -957365.894579795
 552295.273079791 -623788.484863386 1481842.72359976
 -930874.800055656 -222000.260981085 -1405058.00262682
 77593.3756750916 1179262.37519224 -1222014.53285438
 -237196.400712897 1472606.60753904 -815578.105959944
 303254.396806009 916290.027992826 1399446.08878611
 -376093.881888225 1288371.02734520 1043385.58927356
 231906.178774426 -1651684.10759610 -328875.558472706
 1181721.76731907 1175206.74046278 -335295.066792152
 1314130.56862972 1030229.75692748 318884.769993893
 1195494.16424663 -389418.401026995 -1144179.62409485
 1296705.89190950 336643.156098099 -1046530.08334186
 -1169026.55032748 -1233273.65511200 -49122.4616251949
 295081.332219085 -594898.491871410 -1564935.39539015
 -978960.315442867 1368069.98164078 244992.298085857
 1675946.60196662 222333.893483924 178243.168634333
 430868.082760206 -1640525.09249661 -114149.534153804
 12966.7695068280 -1699303.51821645 -46897.9302929175
 -217437.457212711 -359885.336806899 -1647180.46872595
 -1544049.50587429 -74829.5497120777 707327.125097902
 980328.478058373 35669.6207280201 1388410.51323622
 886197.082439745 -1445847.38797923 -119080.064447895
 -157151.701375521 480901.190752790 -1622971.77655292
 1134164.51922844 1102399.33859528 623206.660416911
 842032.109928587 1171015.90946958 -899835.354727937
 797675.044530386 457563.702788869 1429807.67280903
 489745.619681067 1527480.46955783 -562985.473278498
 1496251.47583020 783017.517482991 195230.859217258
 -983724.967638673 -1024262.60415221 -934436.357265502
 -229161.057523750 679057.239971510 -1541546.77987950
 586565.885131411 -466186.628943660 1525978.53503716
 -237480.524803400 -1676898.48525702 -147018.605903568
 810117.747976384 -714201.090685331 1312869.39048694
 -146887.287950313 88658.4126633775 1691320.13838380
 -5776.18621783427 -399890.496991598 1652287.57366525
 1589800.84069635 -123989.989325414 -589202.655686714
 -111429.999945184 -1332993.46296945 1049148.12242740
 -1497257.69114418 625826.605052071 -506517.982621148
 1270991.73328716 -651121.672435712 -922290.941948485
 -974637.533956432 -601194.758520126 -1256442.01606411
 -271540.538770371 -447751.718163739 -1617338.59617760
 -1386485.99059679 369956.430410684 -911476.185907570
 942598.995023034 -727931.852222402 1213104.42794577
 -1314180.59123665 -932100.446394618 -542326.591131067
 -1268390.84990941 986536.586791960 554914.601345965
 1544511.90252994 183639.957424832 686119.048693709
 -795885.774422283 -587180.476997892 -1382673.10724725
 -7392.25786416561 387743.501226275 1655173.80712131
 -1239715.00692315 505102.169002027 1047844.69291923
 -1511922.53128937 187243.066343010 -754340.966331547
 394040.412892301 -413205.452625653 -1601247.45337131
 -1256838.49770963 -176119.864534430 1131078.59319827
 358535.832035375 -1319492.27015914 1010144.64614578
 -1203447.44221207 -1198450.54067504 -73692.3021009145
 1094672.83007393 -958136.340279705 879582.940110454
 -1418150.73493713 392470.437859166 851360.938970015
 855400.816879489 59451.3962470384 -1467908.36701961
 -1577734.67340496 -589102.332445113 231757.938900641
 524463.342483356 1198348.81777299 1085770.83831408
 1503232.35449299 60028.1948559496 -791636.977552087
 -716960.625391786 -928745.945816424 1230202.59704139
 1580453.18921099 -66622.2360924087 622679.046034848
 -575445.850845739 1365789.14461475 832755.717600862
 644876.630321757 -880872.334449464 1303149.28617807
 562394.159715329 -1584274.74100321 -252559.605117856
 -1548811.12756496 -681812.415945657 -162221.825268043
 -360174.690062881 1546117.25387695 608108.238640222
 1356610.20723076 211943.737876752 -1002341.55736064
 -1460158.44404554 697849.435276066 520522.318414297
 839868.399828416 976821.127454402 -1109252.70156460
 1437965.24380242 -736062.955151938 -529591.619712051
 1667818.54539205 190307.075884240 -268634.540807295
 -601599.451453846 -505001.500825424 -1507664.28099047
 -81088.6023040537 1102122.79799051 -1291801.05926800
 544716.203552241 -1607391.99804835 -97853.0643249232
 -1124905.54457808 1224653.47113810 353286.557070726
 341904.510487112 -1197150.47189762 -1157554.34142155
 719712.259205835 255735.120389025 -1518754.03280072
 449909.583983738 1613995.36982605 -287402.700786967
 -1694716.01170884 98068.5478504008 91215.1280226462
 -514689.921777399 1451131.26543980 720633.287382606
 -68243.1934877060 -1460554.26030229 867250.897523569
 -448180.023441118 -1422089.26090739 816576.267473027
 -1463076.34590294 824034.024734247 -265283.870862080
 -1476476.81035922 -459454.046493626 706341.424264565
 -866882.118337214 435239.858647089 -1396095.14659712
 1082742.63488736 760698.241169799 -1067242.50874782
 920907.680979635 1357840.75544218 -445193.807204129
 -1265434.23381086 -915570.435248681 671123.668184981
 -1405250.85800302 379100.235205539 -878380.918365657
 871900.656635943 -1242610.91746265 765315.198307489
 375731.157335580 1617980.69646216 -361890.264145199
 -1469868.26570936 -606479.605280040 -601389.865095776
 -1086610.68902307 -1040361.19129250 -791786.462471585
 580314.617649857 379208.878271740 -1552235.66869911
 -683885.595066609 188662.794926332 -1544897.03303197
 -875546.860027576 1336049.66400064 -581712.120571365
 118238.000565178 491156.762913617 1623202.02361461
 -936721.324084924 -1262036.34624462 647933.192360235
 1176634.74450069 -1172101.80852593 -362916.007478366
 -1514789.26164503 -758565.514917468 -141392.547126476
 1373738.99656594 -304492.436861423 -954004.992234419
 259020.734738419 -757987.772786408 -1499454.16578229
 573977.886326698 -422780.598862193 1543310.06321920
 -1632329.51446437 252293.939651352 -402303.522509709
 1568571.75517764 -87650.2452340399 649538.361738049
 -93487.8785058944 1236312.19605916 -1163095.94206490
 -1697201.58953723 -84671.3222394034 48348.0264595117
 -1572717.91421011 -542625.925363560 -349450.236007868
 1560372.91889989 668553.780245524 90951.6183652151
 -645089.337175006 -140210.088608701 -1566588.93080331
 96960.1499055832 1641724.99633283 430508.729001216
 495232.333012635 161684.585952641 -1618209.82292291
 -5986.06870361998 -725427.630107167 -1537439.07861696
 -1453843.19725550 -619077.794403270 626963.031023906
 -403090.883077855 -317610.625049490 -1620691.59028952
 -33159.4251655982 -1541588.37029994 715825.222438170
 -942518.060006977 -1132004.00515217 848661.675156911
 357371.714477441 -1476105.93929105 -763804.106876318
 956038.377673574 219357.339644748 1388478.65592499
 47010.4438118013 -1661786.59070787 -355324.281630365
 1041438.55247651 1223105.14493789 556254.928825001
 -436355.972364075 -1172032.18975684 1151492.08054419
 585661.294040739 764501.899537928 1400906.02620784
 -910513.165294996 -1301562.11923532 -605724.215791432
 1674306.38034197 217436.502635024 198543.476518383
 1620295.95514194 -131922.503449825 497229.796808468
 -14905.3867986905 -112860.940715206 -1696184.02229984
 -1109208.32424822 250122.026268021 -1263762.58268476
 180108.516005055 896437.170329365 -1433164.79237886
 314753.862997311 1036545.82671988 -1310153.71420222
 1607426.41340331 -411187.123707270 370277.564525205
 1059373.13988553 -947850.760044236 -932366.605564910
 690801.098355385 -1370814.97813749 -730520.457088582
 932428.180774261 -145271.962669464 1414027.49073707
 -184555.981324909 -986333.831772237 -1372255.31955926
 939126.847807545 413102.191212946 1355502.61650140
 1146184.97795812 -413755.375459368 1185355.00403113
 -168496.470920108 1241137.93355008 -1149428.36627191
 -154052.608252915 1379448.56334398 981524.047071040
 447864.510103206 -1536671.88774926 -572762.507494283
 -628556.843145861 1487547.53687553 -531148.397785449
 -698160.624220388 -1549757.91385512 -28673.1796565022
 -438265.326143523 1576704.02927131 -460356.283741103
 131285.243164613 -706009.493399974 -1540881.17003107
 -599381.258556217 -1475070.93858918 595741.414559376
 -1325211.32098705 -219355.721044054 1041968.34038900
 1465874.29555330 549004.675033623 663179.022909601
 405265.208757603 633817.812004144 1524478.62948515
 -298555.128187149 -1501314.30378488 -739540.530791982
 515436.025510196 1285040.59030777 -986405.791177101
 1463810.47810179 -689581.352153729 521283.457402238
 1495231.91091359 424817.143247991 -688339.979507444
 -435462.284954360 1399974.63960187 -860490.329320400
 -769499.204185945 1441015.46526843 470473.595023563
 1016184.84071575 -834341.975999967 1077609.31537546
 -18086.6113292109 988416.693513906 1383005.89820639
 -790105.840388188 -1473836.10793854 -305842.913798986
 746635.079967425 592801.082739744 1407523.68849147
 -1370984.91226444 423109.345536384 -911799.787268585
 -1630419.82596348 366827.429133591 -311719.149781428
 290777.313006567 898599.150284996 1413495.00223657
 -245773.387815636 -44812.7026460648 -1681543.11973353
 869387.041585325 -1151439.14541978 899085.127403669
 -1619067.42547821 389585.912675530 -341823.768044484
 1028904.50094747 -143909.455064814 -1345602.31743000
 1212523.22489002 204393.097263270 -1173887.08609194
 1036137.69570227 -1333047.09134784 198504.729902948
 -1235971.75715676 -1101300.97996922 -386665.187248173
 -291803.131279802 605620.213904932 1561433.66464447
 1024789.51156536 -861046.599828783 1048048.28605791
 -1248497.69828792 929057.666461872 684182.248935321
 1663999.68300289 -216677.824552272 272315.580372422
 203725.372034835 -1001652.68303267 -1358376.92683685
 -1598461.59144588 426416.868639075 -391266.143197132
 -1295233.52714285 172541.595318330 -1087473.91143425
 298815.567462751 1103740.34530722 -1257961.25011187
 -502615.703428183 -1621913.43305926 -82305.9556127341
 994110.802992573 1378587.53998793 35215.1382717124
 -333835.111971289 334691.127416095 1632953.14300321
 1442464.33799905 -242475.313992684 866315.390435319
 85005.4068829255 1670142.77452926 305609.544170965
 -1068200.56423127 -230804.410831922 1302181.58431017
 612739.622781283 1478375.99964114 573545.602684670
 -340074.193798210 328993.811434744 -1632823.50998206
 -317371.342446130 1038436.38973612 -1308023.43077858
 129519.357631247 -1120629.13076491 -1271776.35112463
 -617149.392145133 116690.206324741 1579718.33676855
 66506.8470630940 575935.141143961 -1598084.96410210
 -750194.117368251 -1231664.73190604 -900117.089297219
 -333942.390085609 -1145300.14946188 1211102.82294548
 -287545.469984390 28175.6989284021 1675268.25693122
 1123755.54080877 -961392.823725644 -838389.720231841
 1149593.21899824 -7635.57339880383 1252348.64508736
 1153491.97870898 1063825.96258350 -654011.143932056
 960800.786415093 -1265027.14937861 605448.726284208
 -300814.781025411 1403413.53793290 -911010.926972494
 -472530.652120628 795500.352228874 1426146.54661090
 -240522.555547083 -423973.843032721 1628617.53665407
 1410017.69140343 948583.329039969 45163.8992648311
 1293911.70647770 -101365.875069608 1097960.58909751
 -1631602.70527869 -332445.499775826 -342567.660187088
 -42581.1193606077 1699465.13134882 2261.77000180938
 371653.344639962 -1413640.52484381 -868040.470218556
 -430772.314184348 -1333742.26813057 -962063.810531395
 261186.468286937 1674380.32912551 135026.450080513
 -1027983.90852924 -691365.489154350 -1164157.56846370
 -373928.388603378 -1566751.10276539 -543570.181466872
 -410471.934437800 715835.813862252 -1486301.40907928
 754541.613691731 -264050.632687113 -1500314.70584841
 166599.730213127 1077057.66567891 1304680.54124188
 415355.911808984 -1238621.81660872 1087793.85084961
 -1238736.82446945 591463.428819997 -1002846.99335035
 198402.402845772 1086477.43965747 1292363.43946290
 -554573.949909825 -1252947.09847315 1006266.01975280
 -182978.533251566 -1414958.07714947 -924344.360224356
 283593.563430491 -1538874.18377996 664410.217618875
 -1084359.97577571 1222265.33731258 469287.639023094
 678316.925591878 -836072.139200077 -1315625.14665424
 1455549.32739309 851697.983064549 214445.100595250
 930634.322204394 -1407521.58629869 -206888.236587724
 -1697875.56743761 -58743.5645935353 61382.0097200239
 1008473.68239858 1165420.81173217 717478.336600469
 849395.145485525 -1471770.50955207 -49187.9460688183
 1347010.53838541 1003982.31960588 259965.596565086
 542014.303516049 165514.433118415 1602755.58561295
 -327733.249206723 -1206824.96334218 -1151592.12624025
 -555406.190289002 1580652.52783195 -288204.007687494
 -1129069.83541788 -1269440.85478835 61001.8273797580
 -1242196.41453055 43637.2835507410 1159760.25764455
 -441403.424887652 -644980.724830150 1509689.66383659
 -47156.9521454897 1564672.39878110 -663005.660878508
 -906929.168973835 -1150513.68512023 -862437.094990410
 -477281.241870695 -255269.146967636 -1611533.51772924
 -968415.203467024 -1314851.68214781 -472585.492421221
 -72891.5918537350 1595699.57882917 -581747.084188166
 1447256.87615760 136295.416453029 -881402.912332628
 -641373.775889421 1516624.74208321 422479.669691210
 373736.993947352 -223369.787903579 -1643297.47678474
 1033296.55524191 100075.864615547 1346210.62625677
 -1276876.10456804 594230.407396169 952091.191277883
 -206681.855665433 -1377301.79096194 -974844.801571879
 605424.109184808 863554.496205535 -1333317.39660929
 -1092909.55011115 1301932.98317568 -22786.4563969904
 -1392254.27314403 -4127.79271335106 -975505.510102071
 -195084.746137654 -1161403.92224963 -1226002.80228374
 -935193.315492150 1155066.64033527 825369.322814581
 907823.123800294 1437307.98015286 -1716.41556562390
 1085152.96213825 -159391.435173290 1298860.04602343
 537693.280840862 1506733.23395071 575013.823700812
 343476.662394411 1434093.94281710 -845812.240137079
 -1434347.94599212 388577.767729704 -825622.969795761
 -475556.730976814 1599230.66979404 -326047.635189612
 -703976.981350868 356550.906720769 1505751.59327318
 950352.877721139 -454024.430601112 1334425.42849890
 -1617703.81270840 -517225.487583233 -74243.9852311150
 1119235.80180716 759085.602809812 1030097.21267459
 -140686.036397776 1681043.95244957 210472.490115488
 773256.279060824 213789.325059410 -1498789.12839120
 1052750.68929322 159856.782776142 -1325202.54874231
 -1442265.85018496 366129.127324069 -822081.917764379
 -1246436.04883371 223051.300740267 1134303.88053902
 -12327.1726284434 1664775.83447671 344048.632837519
 -982878.422607859 -1286810.41252731 -517753.772157365
 -639046.288907440 604003.667876429 1454922.47553794
 -903031.427873029 -1241246.50595798 -730644.476965852
 -744212.803048290 -1510462.54681838 -233773.818974542
 85522.8397055439 1694395.38497335 -108213.322976980
 136729.796115331 135168.258000536 1689092.80529027
 -1093546.34570973 -998577.715078848 -834864.621799731
 875707.598220292 606529.434328731 1324861.59568165
 1274145.77336763 -115889.638906507 -1119429.38133833
 555606.070261826 -1442831.81338858 -706780.201308740
 -1559900.53564762 296654.159156575 607212.177695216
 -768543.352089848 419615.836884215 -1457142.29414785
 1639175.47347716 308546.881113077 328485.295418698
 -614556.564838583 -366953.392747492 -1541968.03992979
 964332.933556636 -546834.519580182 -1288811.08059078
 185789.413651062 1472447.04484764 -829085.034176017
 -1391991.69278538 -874307.988113960 -433525.857517867
 1036356.70052885 -1262594.66501976 470977.176870166
 -832817.679288454 1463345.16794716 -234596.744458017
 -1277348.48121029 -1077402.32426060 312386.122015092
 -984163.186316333 -1024686.85613954 933509.330191482
 -810611.230344212 -643811.330305159 1348486.70894842
 -103311.307248420 -1687456.90004269 178370.357102724
 -1125978.66119764 1260795.01377900 -180466.029372730
 1559013.78121764 -672472.305233418 85188.1955880172
 -1521778.46590580 -565836.069476764 504003.812668600
 1615141.58796008 -466489.253177335 252399.341345919
 1071096.14518048 -1043056.60586524 -809188.460582821
 76966.7444048604 250009.310053469 1679753.39414520
 -689128.051177355 245600.811830893 1534530.14643196
 -1662438.16285948 336466.752968156 114409.260182371
 -767266.584795189 15216.0668105136 1516927.96769245
 1563820.44533917 50111.1102895805 -664796.578935794
 596611.679034924 -395204.634800855 1542033.65756752
 81539.8925646721 -1522920.52832924 -751042.149492254
 306889.099911622 70789.7421801962 1670571.12771576
 765145.199836246 575133.783772370 1404910.65692137
 406117.156656643 845557.370464428 1417780.51486202
 -848423.576270138 -298391.174907737 1442615.72914140
 936297.125029871 -978050.176546726 -1027991.02419122
 440216.617123296 -1350281.39817052 934317.652494684
 -226225.983668683 1427487.51074986 -895042.574946182
 44225.2189645101 1573977.64307425 -640810.821623643
 1695038.23418340 54191.7873996477 -117934.875396721
 663838.814325728 1235561.82470800 -960575.351504951
 -63517.0956506141 1511005.86485141 -776419.252044127
 -303718.968884898 485141.562482986 1600747.46674516
 -1089203.03711461 1194729.78448264 -525602.022456523
 -1457798.35206051 873918.228418755 33028.6961155002
 -181238.383113886 -292738.324468408 -1664769.32992943
 -301120.873143423 -588287.258632920 -1566283.60174252
 -1441068.64562863 840454.472582333 327043.480446272
 1615282.09792567 374264.423119431 -375219.783204342
 840605.383941725 345194.883675679 -1436740.43611653
 -1505311.35667667 -359830.497965444 -703249.409664999
 1421199.61212809 -222704.372171512 -905866.670709687
 1156451.51127930 1181778.68183233 394992.467303428
 1437150.25207920 524605.607299909 741207.197575813
 -717781.370329225 324159.990711196 1506555.74235752
 -1118703.89155302 1231524.48934541 349068.811506641
 -888575.021501229 1349819.05281668 -527657.991332609
 1187271.65795573 -1103668.54085911 -512154.041410360
 372482.127907409 -1100361.92692266 -1241152.96968932
 -360147.747418349 730958.914537954 -1491976.09407356
 -612079.827597403 -212294.672433686 -1571715.38667298
 -127032.044666807 327730.754513857 1663266.48862218
 1436824.05400059 673867.093774465 609458.593977686
 -1500796.03054084 -504098.643634627 619270.403134680
 -716560.077702894 1318891.62566220 798164.478538437
 199800.941682019 -742310.957918343 1516263.17816444
 764313.733904688 -1309443.37685222 -768883.969778617
 -1543844.87897005 690908.775363512 -170845.116417338
 1484356.90038965 -721824.240949755 -407006.581572020
 77346.8563923457 813842.352269662 -1490529.46614899
 1635859.03875176 -316221.496617654 337593.202554569
 136975.565010179 -1061006.57436584 1321174.75897120
 1534029.11760858 96392.8667796016 726266.536171842
 620441.576134392 -1576291.89676774 142674.828853010
 -1007538.06663610 -85295.2871596265 1366598.60905372
 -1600477.21176853 106035.592856864 -563230.989610048
 -406834.575123892 -926044.790730666 1366355.25177179
 1262218.37678533 845801.396095651 762512.142636473
 318997.558770277 1202028.91480794 -1159037.11996823
 921777.322703763 1418269.21998728 169820.455145327
 -595467.547960785 1544315.93880032 387951.904870752
 1575914.71219078 163225.713854332 616319.873310447
 739686.578643027 750561.440750839 1333986.98982914
 -516214.480818996 1578545.95404053 362925.999034302
 730776.804810031 174930.892363489 1524914.56955744
 458315.790465507 -305969.785715372 1608206.80462410
 -791070.068097683 -1502010.51116310 -90402.2771587847
 -290014.365090768 1513345.41144971 718106.770393596
 1342109.88747543 984486.934352024 345726.085262354
 -988186.578271188 1379282.44578156 105200.861610118
 -1272126.42513158 -170998.740544970 1114654.11191723
 -1178931.98310852 409811.138268528 -1154198.51418847
 -1617825.82714826 159776.603486671 497102.635267908
 841305.036125146 1270674.60847272 -753386.936157755
 1510372.84496523 133916.226328102 -768661.377667486
 1569246.90004863 129329.246459013 -640888.533754586
 -1340828.65435495 1042653.61627297 71077.1139929656
 -1649005.29649490 -229972.659625245 343357.114323623
 -340067.958183936 775102.117269045 1474303.39198608
 -616339.867789480 -1416001.16532801 -710679.862640669
 -1453381.01531174 -779023.703641147 -413286.454528398
 -1685159.81945720 50688.6046947550 -218327.845775776
 1132933.53868122 1100806.53861127 -628240.846715596
 1682447.43234129 -124067.268199935 209709.204303463
 781088.375480900 788651.280182172 -1287606.34821192
 222727.411862987 217339.489504369 -1671273.77957856
 -133146.619503631 -1684174.03600054 189287.596467405
 -1365067.02186900 -991716.854665458 -207580.601160478
 152557.412415089 584683.774935222 1588984.30427890
 452661.801624888 1430686.77820513 798894.633865274
 1183293.86034761 1206344.72900788 -185871.016725407
 -756151.981720532 -1493418.24595288 -296540.255606455
 389102.995444497 1071835.51414800 1260859.82152942
 -1055588.15579078 902591.924626309 980337.423009847
 1508022.41796873 461441.422076061 634775.709125795
 1506994.74048520 339621.944495055 -709664.559469717
 903315.767837295 1397236.67803873 -348927.340745625
 1514577.73783653 733082.253854409 242166.647442869
 -263429.026249791 719076.886585562 -1517739.62829845
 649094.654536249 -509454.910342429 -1486314.84678733
 502735.585904002 -63332.7656445563 -1622727.91664579
 1052503.47722114 -784024.496140930 -1080528.58355916
 384179.600551914 1505896.13399418 -688972.327558340
 988896.681062159 -615468.686964957 -1238257.50534769
 1562784.85388846 530073.927078837 -408319.889655227
 -1124249.16146469 854453.477961932 946558.543854898
 -1434866.50253945 -749646.819468768 -518833.081010215
 434059.374015571 252147.409183421 -1624196.46098349
 317405.473839065 1121079.54953564 -1237915.34799031
 -1395630.20262989 882840.757499958 -403495.395765757
 -211829.371826934 -1325901.23710061 -1042647.70017800
 879765.532948641 -551636.538991808 1345997.67306067
 1290224.25850120 885743.087576753 -663913.055742271
 822733.135999013 915809.280747164 -1172349.58447836
 -1686387.36344405 -158557.301252245 -144766.165369599
 824369.080902958 -155268.646574428 1478616.67305700
 1489074.69026091 -539329.550318174 617883.648414463
 1121155.38233696 1003219.38405391 791556.363195551
 -958883.497631539 1262644.88733311 -613408.775989922
 -1089022.00773253 -1278879.38306189 -261722.353369818
 650600.580935421 -1351191.46061446 -800625.081326486
 -354150.329970230 1591157.84716313 482487.563770480
 1619792.16729114 43409.6377423041 514187.648756126
 145082.311903391 -1171839.03374896 1223006.29669478
 -879183.975391161 -1450945.55364927 108593.451739976
 -830407.717597344 -521415.465326583 1388722.05105018
 -1448092.20529940 -869481.913547753 192432.239929920
 -740910.184143617 371046.741589433 -1484377.45017503
 933080.659081201 -230817.498516536 -1402171.09014099
 -1028768.63703719 -167906.090049204 -1342923.16845493
 1418678.06180516 -909494.146149986 223993.203181838
 1633685.12932960 -424654.776278437 201844.542138859
 -405733.410577309 943689.749983335 1354558.98923513
 1487539.64638649 -762871.079559869 -308631.684049971
 -729938.448410692 1075080.19447441 1096080.48836783
 1227604.19713942 -379086.315637717 1113230.21000236
 419832.101174199 611064.110479672 -1529817.52497066
 1400903.71147591 884657.796268415 380590.823161206
 1189590.56016642 744731.482294227 -959296.262081111
 524379.769071110 853974.110303787 1373227.61285949
 210865.871355240 -140551.403265034 1681005.91531911
 -971628.364736398 -1110600.03829332 844100.631312726
 -538654.327971675 -1452168.77752753 700754.847668990
 -1137689.17271734 -391612.374756799 -1200959.23919968
 -1187939.58685952 -1138925.37009596 426202.462831694
 1309652.55438572 722321.114632177 808122.759330212
 -861500.743845645 840800.896719601 1200362.57873566
 1654721.45129423 -365634.358664897 -134938.631942195
 1450211.45274838 879783.783272384 -113433.844192887
 -311690.265381626 -1226250.34058629 -1135411.50279463
 -1224643.73471829 -887855.596693255 -775860.916940467
 -900369.436453004 -1395860.22842403 -361813.626892796
 1145744.70077217 1099405.06043813 -607105.916406274
 209750.857906118 1333294.02060635 1033601.29267672
 1696085.47619345 48941.4689535674 104397.270377722
 -1405130.57650127 -13652.8135896637 -956776.705225574
 -240308.174907680 1393398.13907541 943765.652635083
 -232338.790608899 417935.545456901 -1631364.02014450
 -35878.6903746090 73973.3607263083 1698010.79545445
 -981765.486105600 1380276.96850217 -144817.196887263
 -544366.553585137 -1607486.99778986 -98237.5044184690
 -24740.9258014262 1108424.82539648 -1288713.42548888
 -24842.7802316132 1560589.63947524 673752.783617915
 -791423.725776545 1227594.84645836 869861.701207064
 1426444.60246527 162415.571806412 -910426.810969719
 -585326.284144552 -440318.171107901 1534116.37410000
 1588908.77739417 -567446.348778099 208263.146951535
 -1418312.54701473 697864.422168115 -625599.526256656
 -303409.636521208 -488360.672890134 1599827.00491033
 804912.015748317 1329960.26039424 -687984.267753318
 831537.499555252 -966246.269722318 1124683.74802924
 1422457.30454007 686666.705042184 -628573.029127979
 -1182034.57284805 1183463.34737520 303658.976503927
 -733406.275640082 951538.011539646 -1202784.53907877
 1244274.96301142 -1157201.63786678 -51615.7509040320
 519358.669705738 -487203.262320947 -1543664.32665438
 88384.2939894571 1662607.20943595 -343402.800960618
 154461.875226768 544873.875102500 -1602889.26296617
 276556.853046232 -500976.584033463 1600793.16880206
 -50992.4099840323 451038.376713659 1638280.85408318
 -1417431.19153786 -888656.426007126 301957.900661340
 -1434617.69362819 -427387.952498401 805736.688495786
 -780459.504362317 -1195355.66133048 923042.688598803
 -275718.805966013 -783323.233773025 1483369.08807891
 670186.812546357 1144590.27521413 -1063373.28261256
 137390.367106787 1164699.80292114 -1230690.15438563
 -785288.580155222 1119624.66276864 1009832.88736206
 -716482.513649145 1498303.47961235 362959.351190378
 -1048396.48892483 468657.270742178 -1253485.20716863
 1170781.11826710 662868.459610255 1039171.29404308
 -651058.197512263 1351748.85154185 -799311.119531914
 -598865.197409130 1521240.07671388 466035.518315566