# OOMMF OVF 2.0
#
# Segment count: 1
#
# Begin: Segment
# Begin: Header
#
# Title: Oxs_TimeDriver::Magnetization
# Desc: Oxs vector field output
# Desc:  MIF source file: /home/martin/PhD/repos/ubermag/oommfc/docs/ipynb/thetaevolve/drive-1/thetaevolve.mif
# Desc:  Iteration: 1886, State id: 3781
# Desc:  Stage: 36, Stage iteration: 50
# Desc:  Stage simulation time: 1e-11 s
# Desc:  Total simulation time: 3.7e-10 s
# meshunit: m
# meshtype: rectangular
# xbase: 5.0000000000000003e-10
# ybase: 5.0000000000000003e-10
# zbase: 5.0000000000000003e-10
# xnodes: 100
# ynodes: 100
# znodes: 1
# xstepsize: 1.0000000000000001e-09
# ystepsize: 1.0000000000000001e-09
# zstepsize: 1.0000000000000001e-09
# xmin: 0
# ymin: 0
# zmin: 0
# xmax: 1.0000000000000001e-07
# ymax: 1.0000000000000001e-07
# zmax: 1.0000000000000001e-09
# valuedim: 3
# valuelabels: Magnetization_x Magnetization_y Magnetization_z
# valueunits: A/m A/m A/m
#
# End: Header
#
# Begin: Data Text
 -403466.611371259 -1633966.50212684 -239516.520173418
 -1021375.18816024 -354821.271613253 -1311828.71984928
 -367266.310146253 1568314.72952185 -543603.133357751
 198085.701933034 162610.693079067 -1680571.27703232
 -99958.7578737646 943313.409199869 -1410733.16355293
 270853.166226092 -1254218.12022974 -1115157.15001639
 909846.988793503 -1032386.25986680 -998176.871812622
 -1560748.46351391 -670752.248320316 64464.3700985052
 -62088.0584202498 -1642464.82078512 -434113.332535312
 44004.9543202959 973281.368227493 -1393121.29488300
 1150417.70968793 161412.848419244 -1241162.75548437
 -708958.523473771 -1401294.87111738 650961.209423428
 -102882.149594166 -1077894.06583800 1310556.99842705
 -868966.397909219 -1002528.23990101 1062936.74670964
 -1299385.26075531 -1096137.80963758 8935.68211039293
 -275921.273494586 381735.576602685 -1633445.86699068
 -592688.020694467 274418.638064486 -1569527.10113846
 508747.297845818 -658740.373363245 -1482308.10138643
 1416507.44931935 518016.453880635 784324.932366502
 1398285.65783197 963421.528296615 81339.8912959911
 607644.959611572 1387213.38591432 772273.672346002
 -1317028.15901166 183055.562242715 1059210.78615276
 1508727.45017122 418660.805636115 662166.603600612
 753496.692847086 891855.102961499 1235652.54387714
 -1335508.09969737 871823.830588197 588507.709432287
 -625321.093217220 1552197.15745372 299428.647210311
 1344289.18566436 -152718.397183731 -1029351.09484931
 471227.443553537 647841.823186500 -1499415.10882490
 1586219.75598243 534614.623158083 296806.486513676
 1527990.94275878 108581.889257786 737193.090155037
 1246291.81574524 55137.6750761379 -1154866.46275386
 10819.0492641363 -1688308.05973456 -198743.159903251
 -1311798.12648445 1064152.15802570 191744.256553179
 -814676.034774645 -563584.436185434 1381548.24079849
 -523403.472142007 -938090.412406115 1317586.87891972
 1281051.64365226 658442.810847739 -902972.730008371
 1090414.43331109 783328.593267649 -1042781.22278653
 -263831.376469298 460951.167030689 1614904.64932248
 488593.422037553 1614069.36391344 214607.913222457
 166079.599281785 435382.160879911 -1634888.35725561
 800793.604224259 -1195152.93001553 -905725.718586378
 -355814.402080927 353217.786432914 -1624387.05566722
 1387759.04665435 -863344.015464450 -467719.936918168
 428904.078723997 -1110070.25389301 1213995.60241206
 1544481.53939234 -643290.209587883 -301254.843487431
 -1650403.69196659 -390577.306371602 -116691.993258183
 1124634.21645251 878120.222636661 924176.797902216
 -565299.961622339 459469.598782305 1536008.99775509
 252915.309102816 1002756.11237139 -1349264.25340748
 1552134.74166585 369410.789776940 586867.457020980
 207803.588065536 1006246.44907341 1354358.05919788
 293715.901642181 -1349528.65961208 991213.078005004
 -327863.602614856 1211093.61795592 -1147064.82232995
 -758473.794764811 593723.922710749 1400788.85141767
 -1655284.14402091 -366952.393330199 -124017.513207569
 1387634.35279180 -496318.063564005 847430.989952660
 1587652.12335380 399505.148773825 457991.671663781
 -1265863.90506318 -1091209.24738882 -311208.856351034
 134950.530748785 1248059.91872592 -1146357.18409249
 140705.693648985 1424073.72189080 -917723.238452005
 740514.590946867 825192.165833922 -1288679.95640544
 -79282.8680080210 -1199369.57886024 1202175.87737612
 -623215.347764232 -1572276.69474042 -171897.136355577
 874807.459501599 -1293295.45375154 672382.910331566
 -839449.365575144 -1046146.82072253 -1044462.34595969
 164964.097633268 -1667931.26150398 284239.605596744
 -1295727.89203844 397083.402377579 -1026359.58676765
 -1119614.24632427 314114.598385125 -1240079.01301050
 -805973.045575114 1312698.50717390 719187.096011736
 188448.459205762 434407.413828646 1632720.85092146
 -918677.817186552 643155.230454804 1277647.21959858
 62035.7556836339 -1598500.98451057 -575279.208328874
 939849.845238135 1360320.73805873 -395233.801708803
 1099315.52743977 992512.209754563 834520.751460340
 1113307.89675288 109037.008722965 -1280100.17489118
 1276707.14295106 650235.547180834 -914993.226379402
 -605879.436122396 -1422290.02890803 -707107.617377154
 -921278.823531530 -158161.524013041 -1419940.23171197
 -522642.467496385 1338851.57144215 907921.428768034
 1145729.67983961 1222486.93301491 287800.624291249
 471899.311659037 -1629039.65669332 -116365.100336188
 -544134.276859766 -1161661.26148046 -1115554.12343908
 543293.488714634 -859963.934834502 -1362091.85296155
 -1622749.21976695 -506300.257628188 -18574.6836144090
 862278.357575931 -572180.780280189 1348734.66209411
 1184048.41991387 -1104829.58314597 517088.900968664
 -464609.543808288 -263312.787209993 -1613940.62712789
 733381.845687606 1491097.75911669 358857.271311367
 1050138.41038691 -472361.529266309 -1250633.40140076
 995122.576410093 82529.3917303633 1375834.27687333
 976847.140934551 1283401.50656378 537261.794842890
 1039450.10577989 1220762.61526045 565050.541789531
 -1521508.75122312 29695.5151493722 -757713.201898638
 -168519.091027787 1410951.57523934 -933175.743517152
 -622983.229207995 -779411.006745224 1376375.81302854
 364652.016174230 -1582568.54688515 -502499.454238419
 360827.760877946 -300323.918024569 1633893.77599714
 -82862.3719147475 -290143.707769983 1673006.41246893
 1081794.08289875 77511.0817689337 1309088.84129697
 1654277.28608188 54678.2281436667 -387784.672364235
 -434436.942542579 -891978.334795487 1380448.91003243
 -773108.552593924 1485704.29195155 291523.451514401
 817969.928152975 -1312593.79783696 705707.247034749
 -446050.378181221 -660911.985963730 -1501410.80552055
 -1036243.80437044 -405946.697976394 -1285070.44799339
 -765370.775104143 1513787.06426671 112500.225223142
 1608020.31523553 -334951.873316040 438266.937324621
 -876457.075107421 146098.230647311 -1449302.69526275
 -1680309.69917300 123822.499214606 226334.494837568
 1603206.55244134 409361.206603048 390066.856753635
 -1457583.16914684 -526431.640073386 -698799.709036504
 216798.049810405 349794.625249497 1649436.97234692
 -1036929.21128742 -235021.243299312 1326477.60100836
 -1567018.55532060 -185713.857109716 -632426.446757547
 1316041.65421659 248418.412816471 -1047054.27583320
 -1078253.05613205 -482438.300987067 1222548.00833448
 -1071710.20222580 -1316292.31307310 93871.1296928217
 -1553158.46719665 -689042.388567894 -54031.1255851745
 341379.195606015 -1608861.97666897 430143.446813056
 -929485.565744329 1277361.54827949 628015.969581966
 -260916.145993013 728653.537699102 -1513600.60344819
 -944921.626812530 1179106.56247315 -778993.474629098
 401468.460457198 1407099.05465039 865387.384735942
 1013971.92309678 -853247.526324458 -1064814.34907340
 -1418007.65312715 -267335.018167763 898769.316195242
 599516.666434108 -157050.544081744 1583008.17852321
 -158932.252482367 1568363.50012965 636377.616342642
 380851.776836615 -624820.221841783 1534454.82646378
 -388240.458394650 -1559470.64078938 -554365.102600686
 -1337309.24939510 -422427.985387402 960811.411591197
 21942.0831706938 1662614.06054126 -353882.792286689
 1530623.75542338 633098.113688207 -382593.384388781
 -1221855.99377161 778258.776385965 889596.092315280
 291802.525350510 715203.718865718 -1514376.08496691
 1564765.87647627 -514639.278454484 -420302.468333592
 1699608.02119938 -34479.6144403236 -11988.7640224669
 -471946.645313026 -93696.8392355927 -1630486.81880445
 -5372.74681551743 911795.388540481 -1434782.31903936
 618778.376202549 -1219565.66123543 -1009838.06577070
 -1235634.57692943 835898.694189444 815156.773479078
 -248985.247378591 -1638118.74685090 -380227.981352573
 -278828.823579356 761179.484941323 -1494275.83760356
 324804.987709287 1640362.18853211 -306126.788101436
 -1626682.97105403 477872.883563834 -124659.611892632
 -576457.035061163 1294713.35014493 938836.848278221
 511518.574379127 -1393283.49944782 828920.887800258
 -1221134.02225472 -1005359.37845705 -622964.059830463
 -1005705.00942330 947190.669371336 -990649.922968128
 -1110476.42729183 -312271.038180406 1248730.91702852
 -621998.028275117 280507.859534007 -1557059.34169559
 990011.403401307 833708.887466990 -1102182.79431949
 425543.031284749 1629227.24218233 -233520.281465946
 -1683761.16309206 227297.033539675 57309.7217487994
 -1134635.70522579 1096120.94771301 -633340.891156957
 877868.051250805 -1186226.42434287 843928.050715130
 298550.299319462 1498753.42906448 -744718.656704473
 -836347.532191777 -704395.354877527 -1301671.99763369
 -1674370.54955739 -189610.430380680 -224791.342061371
 192720.785597297 537533.222313957 -1601223.51147725
 -527205.443587695 537854.051812543 -1524062.80684240
 -842126.894959423 512424.770191082 -1385006.55149375
 190590.197059165 -102117.896190007 1686193.14198068
 -1345046.96970956 -367091.483025818 972672.859889202
 891968.141229710 -699180.488678398 -1267098.84353299
 -1468254.87752015 -732347.404235564 -444853.789629489
 1594281.48107066 -588734.934610259 40715.3028305129
 1238335.55126624 -158443.077908150 -1153872.11316208
 755762.463133357 638511.314655327 1382434.95339771
 -531496.341410965 1577468.08654414 345117.479999961
 1281224.46954385 858142.448672430 715580.461184190
 -142887.782487170 1491815.50411754 -802539.459023931
 -1686266.87768458 124107.890049672 176355.461642955
 -1073676.27611299 -1304349.10334332 189453.610996535
 194289.811734116 1101646.62599310 -1280088.34870658
 -143335.444938748 -311771.772526301 -1665008.50210442
 663514.491440018 1403041.21572281 -693703.010395775
 -733223.160767036 -61482.7061699333 -1532515.47246898
 496726.413849879 17451.4957298621 -1625717.78457413
 -1584398.43057746 -414661.461954612 455782.278235284
 504853.433592102 1159995.22419921 -1135576.54538357
 -1158609.94847143 -1189558.01070175 -364108.124707947
 -845083.195719909 -370075.640319892 1427892.99765551
 465482.803451639 -1625086.78895646 180051.903766651
 199424.701784581 1194249.98260092 1193313.35674073
 621200.792463177 -1091140.69088762 1146089.68590264
 1067624.58415719 1205786.11882160 544295.492320423
 598373.877670824 -72064.0173863735 1589577.13871310
 662720.567982118 547629.683503118 1466595.77884287
 -1432037.28738939 -837599.966040707 -371073.448814439
 1354202.80719276 -695954.235100726 756162.984836346
 1537741.91504041 513797.745284216 -511235.444456585
 -450803.237390450 -982927.124675919 -1311728.13827204
 -941629.347500872 1159934.46932066 -811101.842438348
 279275.794542707 585669.745772057 -1571303.91060095
 1236084.39629405 1088857.06244626 -420101.967145218
 1482096.80374582 794627.490491489 -248910.055404809
 1266611.97465233 -867282.977815506 -730420.661029523
 853818.106232014 -1446769.00649718 260488.163473010
 1292244.30462475 -909477.374301038 626861.677564821
 199579.497153194 19701.3639804766 -1688129.10660689
 813145.039524349 -119720.260808213 1488106.91949502
 883995.125800523 -657325.387778197 1294787.99505678
 475099.025761722 -24290.3884702261 -1632081.76656325
 -1523886.66822789 631540.590298994 411005.967355819
 -299948.050854972 -1538176.10373887 -658821.250928517
 948374.395749053 1298515.43681534 -551764.139682779
 -881794.489863551 -1435021.68022917 -230545.559312099
 503822.630758983 1623613.66593657 -6435.87749433025
 663604.770376538 -765077.192208710 -1365388.44242052
 225079.319348652 -1640217.52701732 386038.552565311
 -1466694.74140329 333416.702953914 792237.235764194
 1071573.96287310 1310287.38801986 -157721.916322774
 -159564.710898591 522520.849017126 1609817.09065914
 -587636.818323805 -1568818.57614866 -288948.515969810
 828521.625865345 1076345.93292412 -1022267.74777998
 1594625.21584722 -46433.1409157649 587379.250917938
 959018.819046990 642994.095718948 -1247734.54612120
 37032.7827134057 1509960.97027648 -780157.959163544
 -186829.749556486 1480373.80438593 814609.135701655
 646514.495595860 -105939.187308524 1568692.41586005
 1132011.73459322 849440.891719019 941806.564119644
 -295953.865968633 -1636400.81323500 352992.475361789
 538007.669362352 125935.688327368 1607696.47325383
 -1048324.48995375 196416.578927664 -1323796.16681934
 -1685384.42640524 30614.2410121957 220322.725740963
 -1276981.50815816 805220.374955109 781625.470144919
 -1484541.12319744 45050.3174201172 -827108.289425283
 713311.632727351 -365725.231077286 1499143.61218974
 -705118.743260856 327240.424426796 -1511860.19939782
 86951.9140581252 59577.9621319757 -1696729.15666285
 1482967.54065279 329963.524405168 -762844.247492466
 1630677.18847868 184636.480233662 443622.899704463
 -1548001.20463970 -551561.802159495 -435283.641815996
 -415454.361802074 622794.521764133 1526278.04050252
 584384.248399756 -411851.857723677 1542359.58761626
 -26126.5964530283 870524.414273866 1459967.34385086
 1668704.49461983 -226262.729389748 -232874.401608866
 -313165.817376888 -1195753.92594055 -1167090.27903775
 -1555679.62619493 -93030.4787319033 -679121.661168979
 -1162814.32661835 314520.740626930 -1199558.06259080
 687170.803916148 998776.853187087 -1191738.68099636
 279913.658143412 -1339723.62073350 -1008359.54105344
 929302.651903459 1402274.06406575 244998.021244529
 -24516.9147966868 -119666.736944501 1695605.73039781
 677675.164246032 974736.451855795 1216817.66143810
 439264.977393531 1256173.90389940 1057862.65781414
 -1413662.85569106 582334.776285994 743265.456460435
 -1047443.71005868 542577.372303957 1224120.69230213
 -1084656.75401254 350769.157304482 -1261142.62645384
 -656135.520824375 627916.927109196 -1437082.63887720
 -928697.583400604 -824666.713828594 -1160795.24882256
 -1089217.00146683 -225164.440989136 1285654.42410846
 -213869.600275307 1007977.99255748 -1352124.31403251
 972363.699902206 -890327.528087035 -1073231.44188144
 509360.023499075 -1568353.54092972 -413303.202400168
 -882751.837844263 398708.817008162 1397061.37017045
 947065.791559625 -499130.393943792 -1320581.40086064
 703505.904228135 -32581.3451975462 1547261.41897912
 1465198.77750205 766408.841288615 -394727.792790355
 -156345.268096822 -1521905.65574247 -741187.784682686
 -167566.585682440 1645287.68138618 -393636.742240362
 -978822.464541264 141669.149625339 1382691.73533141
 352783.980975030 -326015.413021061 1630722.97256159
 1100148.90209880 1072316.73641783 -727879.942029602
 616050.066382768 388790.497465793 1536009.20075047
 -1574962.63666528 595103.169105129 235254.991932977
 112193.149365633 1674252.97699672 272561.307329280
 -269896.097938325 -1560842.85379144 -617191.770915538
 -76858.0940346622 -1486590.26239216 -821061.645153491
 -422171.301254566 1533715.42711644 599573.499265978
 -1425461.04121558 -572725.841046454 -728042.533767246
 -331811.777632198 -1098814.82107713 1253996.38484558
 691211.682954742 -624793.660617257 -1421920.98620119
 -189310.584444058 459329.086028613 -1625785.43890194
 65784.0905945442 540430.528606837 1610468.03668200
 205489.700705652 -1432030.35639709 892783.871528335
 -476949.570391043 1568187.33000400 -450896.446336325
 -913925.284373109 1141953.05153990 866420.107489571
 754106.501385406 -1211364.81698056 924077.196315289
 165550.049825577 -1682937.19647858 -174113.680426192
 731102.382424041 -1528597.28734606 -137403.200589207
 -1411836.18090481 946041.902871040 -41512.8450033164
 868767.837390128 677438.749944722 -1294727.45579516
 948142.999222994 637944.632345150 1258591.07699302
 330580.804332222 -1587761.21664830 -509637.764215501
 -1631148.65639596 -476528.165213746 47696.6298145113
 1357606.10243801 665385.993606678 777281.898756895
 1212973.20874996 -882783.159024952 799618.589701840
 1466774.41907440 807363.137043705 -294512.425021260
 114423.008365513 -549125.529063133 1604795.47870989
 -577253.668965123 -1517284.50830585 -504604.719083551
 255451.022734845 1659314.47592323 267245.664090824
 -1084639.61332421 -1307496.74744431 -63317.9645160157
 -986232.342938901 -1138273.84327483 788465.867021261
 -396015.033083314 -384417.436722135 1607916.45551503
 878605.197619140 769158.074857479 -1235495.35110342
 -737938.838883977 -1522232.31257304 -168092.405019137
 -110874.048286559 314814.088341065 -1666913.02568506
 -640882.907777380 -1573419.76796078 60160.8868704841
 1010332.73140610 1225451.06558425 -606215.685798305
 1460208.97959865 747856.336074262 -445534.102502867
 -722356.724091269 1395061.41900733 -649618.657642603
 8475.48776625439 -1047692.63323041 -1338756.25577692
 -729877.867605941 984214.867726082 1178388.47267187
 -1489292.83699447 756493.045536466 315792.839899732
 -1112761.24429727 -1103529.69294827 -658775.098171971
 396320.147655043 786039.371540131 -1454328.86478660
 -870544.501981832 1367739.38194793 511313.263213373
 -912064.732975155 -606801.958267780 -1299972.80983309
 544284.682618473 -900785.364189987 -1335043.03748157
 -888820.170896172 862956.972578717 1164175.23048975
 1630168.14601884 478371.481860307 60930.6248799126
 699677.877704006 -712807.462510265 1375629.45186605
 -126117.179988886 1422673.52102585 922005.699268477
 810463.349831559 1402482.68636197 -515937.470082111
 -1220840.66676445 915047.582794205 -749823.971073622
 -798340.072793428 1387373.06256085 572581.097708196
 -1068846.54563443 51844.6665416767 1320938.75423372
 690977.418192833 -493563.924799256 1472733.80476049
 -1240578.36723561 -1159540.56387851 -80193.4876866775
 1016819.64551032 1283728.68305580 -456200.040337676
 -207575.221632438 1653516.75505639 335849.472400982
 -263764.931561631 151627.260439544 -1672554.10518461
 -51554.7626549158 33358.3272143299 -1698890.61697717
 -1577274.56323150 -31746.2099011745 -633401.239610253
 -303712.574102387 -467301.502467858 1606047.31503259
 701588.488763124 1222335.15088260 950615.785347529
 -1393124.63969905 346499.674291228 -910572.190427238
 -1404178.18680639 -668835.027482164 686253.106156952
 -612074.588896621 -1575067.69663757 185812.939904258
 -1571913.72032711 -632192.024943424 -139357.452062423
 -438979.687525090 1635044.09777426 -154685.591681700
 -72995.4221812737 1237340.46763815 1163469.05222510
 -1180958.93475642 -637734.194962958 -1043374.85641256
 771078.681724453 913433.363577542 1208750.24587112
 1588740.75615838 603434.776650093 42062.8107779490
 -693691.056452135 -1328421.13944774 -802552.175541687
 -1226709.77959677 128265.379721622 1169927.82213542
 -1340880.85391810 802098.858778821 -669832.782373010
 1606236.67071469 500018.572183308 -244918.731670635
 -750690.671655222 -1402548.29451448 -599434.564439143
 242672.110311653 -1081425.07239318 -1289042.30329198
 316394.431014536 1489020.28451059 -756778.142085906
 -449725.551160236 -1509225.19072150 -640301.688522888
 976492.837945744 -1329814.91672005 -409943.928738439
 -1080511.33476160 1310443.23166337 -72344.9517200788
 -1158304.82461228 -1082546.85374513 -613532.593043305
 -749539.785094943 -963184.808273784 1183412.49599217
 -854640.426288692 -902273.099265410 1159953.87671022
 -70908.4607617230 -1572319.18193636 642482.980558543
 -1202942.99799714 1162996.00664369 300613.426347687
 1513498.18749230 -455516.147764600 625961.880295608
 -1442547.09530154 -889790.341805742 131647.352674921
 1397426.70630812 -806546.037614973 -535427.016225754
 1365104.09048960 -917715.491313166 -429289.062442063
 671222.509890776 -353390.970674906 1521372.78931279
 -511755.258081498 1056387.15692079 1229696.19439874
 -1326419.37919301 -1056368.10788696 -121235.519302532
 133457.761207656 594367.975666229 1587109.23867132
 1528233.37963530 -641762.314508705 -377682.232895440
 -119108.939839860 -1227559.48256844 1170004.60563475
 -632094.484309944 -883724.232194215 -1307473.91726860
 23432.8314443596 518111.796185675 1618953.69577507
 631891.111644174 1147723.79907175 1083256.06578935
 439988.398796518 1599799.81176639 370203.688794038
 -202963.356123649 520974.344241671 1605425.67835231
 493689.989058666 -1139009.33969187 -1161433.56193884
 -810985.137221948 -1262202.90842961 799466.650434477
 -1007499.00558300 857815.383537535 -1067285.58573402
 594672.302514763 1576699.39920146 224463.487408437
 1167153.37343247 -254616.599678823 -1209513.69982039
 1221765.36374764 895160.095977960 -771995.983483940
 -410294.578849748 828107.845363349 -1426848.18919680
 566163.168045920 -460287.353149054 1535446.13050385
 -1240892.24029768 1161968.94618019 3823.09846730718
 -1185230.99132022 1068426.85739741 586252.119489561
 755885.352189665 225717.815562290 -1505884.72403531
 4950.87959469793 211969.613176338 -1686725.93265210
 -1686640.52307493 -209797.081642574 -35056.1044014000
 1535256.06511198 200302.752689782 -702045.313211184
 652745.192040552 -549871.046402966 -1470226.35896506
 -1208176.02447094 -1041684.16849722 587541.306629465
 1476554.40233741 497653.943407484 679799.712819141
 478761.257242993 1012165.13951462 1279183.09436705
 766225.905055854 -103090.072446305 1514024.53724646
 -1213235.19540319 214638.592664732 1171320.03960227
 -201058.196187256 1455889.97616402 854376.953721864
 -389187.820465828 1632378.78964620 271794.642173557
 293011.283564350 -370634.747151257 -1633026.10876498
 889876.007994812 -1144924.90882273 -887281.039779657
 472116.516670710 888429.653643792 -1370327.96994482
 176489.561450754 85063.4039061477 -1688672.74864457
 -555952.808118261 70166.7524901475 1604990.06289460
 1633680.07228815 -465800.313609459 -64183.2474242653
 -1017042.25122859 -1358557.45926263 -99733.0892821575
 86365.4626536095 1231606.16288259 1168626.23041341
 -211722.181572621 -857090.229468055 1452780.11288031
 218424.595076465 -1578747.07645332 591479.809339068
 -1551359.77079474 659055.044866847 221199.704781075
 630718.132414127 -1445155.86419653 -635388.987646482
 1334116.23082595 65018.9948880509 -1051620.85037836
 1698263.49740498 52044.3522273378 -56502.0245922909
 -1185839.55636918 -198725.424310217 1201787.31574388
 873083.311821501 801653.910804108 1218637.16417615
 4320.25801723282 -1235026.18802171 1168200.17559972
 -1136564.30621746 -473063.595163865 1172361.89496378
 -747158.580341198 -7548.08466024219 -1526989.54883145
 148016.069999967 -1259705.82833777 1131915.39837287
 -102811.125053298 1663724.80476022 333840.750344906
 -179271.421679580 666877.788987222 -1553427.10544283
 745830.339207718 1479943.24810597 -378820.653479780
 -825893.086575157 1277970.40824561 758084.589736466
 602618.089384704 1583151.90031760 -143113.587290320
 908664.288842127 981361.149952636 1049409.12114707
 179756.503248517 1598495.71611249 549999.131917395
 260046.870307711 -1085098.57632555 1282550.85860150
 1317357.90923995 129352.052993037 1066694.04486452
 -1512936.65077201 -734703.760069497 -247453.178784421
 -417298.674831490 1633140.75021786 -220710.457300311
 1027082.89365583 1079630.88491503 818228.502251754
 -902595.632757364 1437561.37044675 93479.5695679120
 -1547769.67495572 156803.421329032 685435.423907295
 -1329790.18854546 769188.998634058 -728015.342440371
 -1467795.87598715 -293254.002416206 805963.619837756
 526364.623299486 1510165.99996717 -576488.452513968
 1246289.06932106 1149122.43098089 -127597.783316984
 405639.204809387 -466383.430577199 -1583648.73984247
 -698184.508174416 1378084.75605435 -709521.527281507
 -1689588.91927645 85936.0777415864 -167045.725478489
 -294996.653283154 517438.782909985 1592241.84108206
 -280693.827392733 -1319195.03671975 -1034860.10182903
 -1492028.69082824 -682937.002481315 -444350.578245622
 -1237034.73019835 1123175.96283397 313402.030617352
 -270242.577131529 1413840.05659629 -904447.479884321
 1125369.05374273 -1251732.29153411 238140.217537809
 1014022.38492749 877996.145199514 -1044452.66617533
 258997.981077785 1220008.34552847 -1155205.47204319
 -212881.398697955 -1668876.49701632 243993.335554379
 -1275725.73619601 -647952.206923041 917977.006003260
 562124.722816412 357829.543780894 1563960.93736261
 244056.725474491 1261197.41831109 1113470.87379783
 1299225.32191937 850975.249720975 -691270.343097275
 -718348.339967558 -1181639.93204614 988788.518066344
 -134303.179824050 1439889.66241382 893689.216653623
 -1472799.96946209 699959.276365723 480538.511861475
 492670.404564303 -1084311.64455495 1213072.18661916
 1330381.96079970 610525.875451694 -864489.441105371
 301512.246208873 1357788.32592790 -977497.430871297
 1697987.59614224 -49790.9686878244 66022.5929831580
 -1227016.38386163 733430.535080295 -920060.021926271
 -502751.602249468 -345040.233320421 -1586879.97776321
 1014590.13019529 269301.759931597 -1337192.36828814
 201237.688003759 -368800.267970868 -1647267.35998487
 1137797.03997637 1157237.84066178 -506180.280099369
 1474700.57810685 -111775.875780730 -838310.418952770
 1541831.26448758 575917.395445861 -425529.676369902
 -1392484.21272547 949203.577693392 223607.435932697
 -1648631.93631034 80136.6737979585 406928.558951336
 972179.651864875 -336080.583096745 -1353483.12370906
 905500.120145284 979201.626237217 -1054150.70440202
 -935374.686591519 1248499.42124152 -675517.128460414
 11090.5399641744 -829927.060302315 -1483609.81208041
 7580.31150040944 -1140305.61994117 1260811.49741274
 1449780.52015250 436884.700909974 -772831.289155113
 811096.659011039 1084071.52961961 -1028061.83102444
 -1292436.29166112 1027991.76262604 -403536.080134438
 820062.525263493 641644.060661168 1343796.99139294
 751596.247411569 -564898.973603611 1416330.55128329
 23984.1734345925 1633033.29699487 -471833.668076728
 -1467616.74813132 474072.029131283 -715092.156158765
 -1506418.07281550 -725425.532086280 307347.339816304
 900477.647955768 -1129728.38071419 -896021.088669754
 -1208440.90552834 913694.127722330 771254.574580655
 1594125.59117631 54.3861669051714 590562.102237276
 938762.835633562 -1344318.78967702 448922.409949129
 -1032388.53996140 -785996.392390018 1098354.93976503
 -642113.035245016 -1088849.81775344 1136704.41379750
 -1027406.24075249 -1298211.96422410 386111.528458098
 124388.648034405 5409.99918893163 -1695434.51544109
 1273985.04757442 -1113563.09453727 -164132.059760997
 -691074.904098267 1036201.57372841 -1157022.80683154
 922214.100766951 -318815.555946055 1392076.79157201
 1243278.98873793 973307.223537341 630024.130309960
 -40573.8254774274 1370584.31637860 1004914.12388479
 1217752.93844950 -1096916.95889537 451498.578276094
 -901796.156347231 895082.129749643 1129420.94606050
 1582758.25368847 -285586.677887178 550741.826806695
 -7102.47698829971 259073.746050220 -1680128.07515622
 226079.890672347 1339045.57753352 1022665.54861377
 927849.942081312 1037994.63917981 -975531.452088393
 161608.898905220 1363779.67783853 1001991.79343410
 -425453.003044756 -478770.445882159 1574728.10426118
 -560935.958622085 -1602514.36405975 -85431.6294289314
 10263.4049699601 -1461677.23158107 867982.910658907
 -1555793.87478040 682492.708564232 -60902.5611322008
 -1466428.28429411 -761746.982753236 -399161.147017805
 1251517.36179684 765344.981332564 -859040.949355811
 -302143.879226118 1533208.68437086 669313.234902732
 1689647.43949230 -72678.2767274082 -172653.984341634
 817299.747194098 1033199.18493170 1074486.18766969
 -89937.9845010999 -1632165.98148593 -466846.192898628
 -863430.704321842 -1456319.78047427 153688.372473816
 641687.826847807 -1531250.79292635 365387.112577550
 1287056.66204532 606916.899657965 -930127.424385666
 -320489.407539471 1283166.72711298 1068068.20479086
 1464479.99876562 -54102.4143764620 -861609.692363121
 -1508853.01729889 -556010.039168244 -551557.257709613
 49298.3564997351 711330.249040980 1543236.51746766
 1419248.38988269 687574.926517966 -634802.905033693
 -210087.623311426 -786713.729006068 1492295.11127147
 -1072052.84804752 1311619.88920182 142674.304776287
 -935399.136516858 -1279999.07524499 613702.552361881
 -901449.477753720 1053137.61641607 -984017.276244186
 -298550.532667734 1144204.52200273 1221336.80501012
 -843622.481538030 1474854.41537896 -55727.5702036529
 1131171.15704777 -1022585.46269023 -751512.331873411
 -334262.149965430 840466.923699353 1439404.10075414
 1110026.41597721 -923622.473623154 897085.771847394
 -1646040.80164982 -411351.791031332 106486.540554767
 104251.291244076 -220309.552716767 1682437.32996379
 -137895.297373981 1549609.40691609 -685343.397837404
 795244.045680233 -1350432.61753164 658725.021019217
 611101.347426393 1294309.11963143 -917234.455312580
 -1072662.02645816 1318828.11092011 -9412.27079664562
 -1473005.70744439 -59832.6863134049 -846566.143597052
 1669063.04001079 -297412.370545800 125596.378595395
 230091.809966625 71784.5959997759 -1682826.41135782
 150192.747480966 1528729.82222468 -728304.379531678
 185696.990832110 778842.921483014 -1499640.06723337
 250908.713009460 -936810.152124072 1396220.45415945
 374474.037655330 351900.028571191 1620473.87051248
 -1147306.33431491 -1221689.61846143 284890.595465115
 -1086126.73215959 -721569.701463616 1090718.06055371
 -622055.132083387 -1076122.67443488 1159744.54179178
 921624.589765206 -70675.3873574637 1426749.13883345
 476218.446080572 1464689.46932630 -719653.215137147
 -549090.447026058 999925.561763599 -1260416.02334962
 -862627.352983642 958094.672988693 1108119.41932046
 -727003.253183277 1426583.31698083 571249.778619561
 -1365883.68944626 523748.898955097 -866053.599812389
 1204565.13135025 1165840.38553737 282558.029058164
 -223705.376797457 1628862.59159972 -432160.343019737
 -286750.852531191 1360367.86649472 978352.296660688