# OOMMF OVF 2.0
#
# Segment count: 1
#
# Begin: Segment
# Begin: Header
#
# Title: Oxs_TimeDriver::Magnetization
# Desc: Oxs vector field output
# Desc:  MIF source file: /home/martin/PhD/repos/ubermag/oommfc/docs/ipynb/thetaevolve/drive-1/thetaevolve.mif
# Desc:  Iteration: 2396, State id: 4801
# Desc:  Stage: 46, Stage iteration: 50
# Desc:  Stage simulation time: 1e-11 s
# Desc:  Total simulation time: 4.7e-10 s
# meshunit: m
# meshtype: rectangular
# xbase: 5.0000000000000003e-10
# ybase: 5.0000000000000003e-10
# zbase: 5.0000000000000003e-10
# xnodes: 100
# ynodes: 100
# znodes: 1
# xstepsize: 1.0000000000000001e-09
# ystepsize: 1.0000000000000001e-09
# zstepsize: 1.0000000000000001e-09
# xmin: 0
# ymin: 0
# zmin: 0
# xmax: 1.0000000000000001e-07
# ymax: 1.0000000000000001e-07
# zmax: 1.0000000000000001e-09
# valuedim: 3
# valuelabels: Magnetization_x Magnetization_y Magnetization_z
# valueunits: A/m A/m A/m
#
# End: Header
#
# Begin: Data Text
 -1084379.32799580 -339028.306596003 1264587.39529620
 -1518812.25866430 -342455.403305582 682593.304741451
 -1307611.32668440 -909180.261008214 -594595.552724459
 1805.14725828466 20150.8488334115 1699879.60889431
 1353381.63885040 995543.494689038 -259328.536426204
 1319466.53570986 -204136.829375079 -1052300.44000490
 1156855.77086390 -1236870.33097308 -147771.816587041
 -1321318.44791355 768158.985282836 744344.901596405
 443772.395965407 448018.224802971 -1578716.48209028
 1116750.24232501 -263248.959098139 -1254419.73908288
 1551551.40531427 690562.078239698 76238.1319588275
 777376.507354634 -1105944.73181245 1030811.33869850
 296803.779842288 -577741.842740902 -1571025.74116966
 467161.970975405 540931.654171904 -1542450.20612959
 211556.975842931 658405.494737834 -1552979.66840240
 -971855.711072525 1068128.92408183 -896993.354710895
 1558327.22761545 58733.0813794813 -676880.105206234
 1640409.18467320 333191.989489482 296716.708292356
 -345816.846704099 1004417.98011556 1327235.93597981
 -1140925.64214614 -1122188.79072286 -573568.650703109
 1458690.23199352 -508910.411059703 709389.174291321
 1120281.21690844 212945.119692204 1260803.06592323
 -461358.323207132 171240.232727568 -1627213.96266837
 -323093.589758511 1123308.60913888 1234418.20340249
 -1568701.21282335 -652300.189367597 -60670.9801926790
 -511477.840559182 178020.528439812 -1611427.66206582
 1459155.55617397 -312160.517437187 -814506.521913723
 -973663.317459129 -593518.703072398 -1260839.12270271
 -55146.4473084117 320191.968021657 1668662.92970260
 -1214923.47045987 -1035510.15286131 584533.732343052
 -119184.165733875 1386191.23350737 976866.929927318
 -339553.077847985 -210521.855292559 1652387.44117962
 -1674245.45935822 -211229.529727258 205631.290395142
 -347576.624818676 -1651291.38558481 -205978.760490170
 -106274.909093205 1545655.84399347 699752.567430858
 -295424.380198358 -1489549.48258983 -764177.187896099
 -119692.810147104 -467489.819650669 -1630069.59965582
 48176.9947495339 -1662486.17251023 351878.819182379
 1089209.12509641 -1298468.94907031 -132672.039657736
 -887263.208809149 1250565.27725809 -734064.360672889
 -1670379.80804290 -303557.135401066 87660.4952624912
 1075167.10045152 1095166.15664099 731181.780034813
 1621934.50913641 502443.031808988 82942.4370212666
 -101139.322525169 1041290.73830748 -1339956.87831893
 -1440354.04872147 -148117.085639248 -890753.357149669
 -1615792.00421965 -405010.698123164 -339385.523417906
 933097.963948071 -1126896.51989839 -865697.651098150
 274038.996445174 -1611547.12189287 -466710.298093080
 -479181.202748377 1581826.22580936 397757.672803833
 1619867.69842194 157457.006218648 -491157.745334295
 -824811.350000371 1113898.29737643 984335.725254581
 -587001.415952212 570832.227791326 1489825.46138294
 432900.724536618 1001702.51154863 -1303529.45538366
 139356.260989536 -749622.013871071 1519423.13686573
 934899.257104559 -780394.191750598 -1186148.50863932
 -1537056.79363664 242257.645150634 684666.083942759
 1194321.16564706 -667642.180378772 1008885.95602601
 677275.838220587 -362202.410049969 1516610.31683046
 -223236.670441440 306743.361694770 -1657128.20838534
 106261.983470650 1669465.90091947 302641.696624921
 157580.238238582 167259.241537077 -1684396.86969464
 1628950.70170792 -471353.797843775 -119771.485185384
 -602350.330960531 1553248.51726371 -338516.059308587
 361697.372666364 565318.644706499 1561918.64082399
 -1587971.83124939 -547529.308815931 261834.144347147
 1056522.68768549 754677.102043008 1097370.62201328
 -190950.712367998 -1640993.27804391 -400847.710310109
 557390.402932467 1594749.98750788 -189969.513507817
 922460.221607771 -484440.715203201 1343273.73718269
 -192651.157709330 349956.450382639 1652397.05103490
 1407888.57465010 89465.3536327742 948601.977580207
 -1242382.56764010 829795.544925854 811125.704958979
 1490016.72164105 278633.707259917 769554.043851797
 177841.127389595 1051527.89524086 1323881.27071091
 -544828.288199287 1449672.62725568 701150.062514052
 -1163833.25507205 1149666.28564946 -462341.417168502
 142655.855767941 -975515.522176089 1384925.54774928
 -1310551.77283133 -1050781.17036963 -261367.524236072
 -113812.101417583 986976.462173616 1379465.21111849
 712950.104361064 -548091.257105654 1442670.48301956
 1262886.98178552 -1126944.60462868 158468.701436426
 -1527182.88075041 -448744.133506114 -596943.172661114
 908944.790483926 -589559.406830943 -1310053.08047776
 -403235.963521949 -563149.162455230 -1552502.42465141
 803669.589996780 454216.614799278 1427516.18448082
 309746.254072562 1225699.88119981 1136537.31100865
 352905.031023508 1285730.59946002 -1054682.35250737
 33767.0590907772 -429661.327301091 1644460.68044883
 1016857.77738250 159702.789618940 -1352957.97405708
 499320.098154325 1029918.10594602 1256959.87788939
 745450.029328919 -674525.320093912 -1370882.87111836
 378513.448050652 -769618.914687232 -1467792.32039156
 338113.350785477 -645840.126399547 -1535763.61890521
 -548106.538045480 1476267.10291897 -640480.026067188
 -1320837.38689429 -575419.290616657 902375.330651540
 150554.388574624 -1692623.85882035 -48557.6835632445
 -676805.186318410 1480020.94310786 -491398.766517211
 34031.9978219052 -698427.168814879 1549529.38435690
 -827146.847818766 -481140.960518285 -1405109.05920324
 -322811.030828403 -1258494.56256395 1096350.52532138
 1279198.44974590 -383582.599806155 -1051910.50726458
 -376811.930495791 1656907.58886394 -51672.1491824312
 -1064960.46880901 1147610.45247087 -662457.130125190
 1672321.53096815 280890.051528999 120172.692457039
 -1094432.74984305 -8023.37995042129 1300827.65247559
 852138.418718161 -445535.290829285 1401912.41522792
 1039360.85105844 1291281.21526490 -377255.675094601
 654402.694988837 1324750.56718892 -840709.847405151
 -984913.363366033 750559.397824130 1164734.41479201
 1550585.63055520 -515618.410215512 -468851.636834695
 257397.383577401 -1379791.95368310 -959124.992625505
 1119317.07576167 -426328.497204056 1206388.53458580
 179507.551427647 -1347733.21203020 1020486.27044719
 -1266002.22256820 -1074463.95925250 -364370.104042313
 -268105.549632965 1389363.62030323 942225.103058667
 681017.854868546 1555707.58966570 -77385.8953994783
 11060.9263005409 -1699609.86059271 -34698.3815961708
 876127.975897860 1446552.13585678 -172877.668012126
 628764.408393372 -1568475.07789591 185852.760961848
 -1119610.02290949 -924104.704158399 884592.500732927
 305593.001452132 -1404985.78974471 906988.339549590
 -246902.872204527 1057759.17776250 1307740.22403394
 149945.050092174 1690751.27324803 94215.7840440591
 -631579.341799090 -216372.066478860 1563422.73997160
 -1031202.57101422 -1247628.78339556 519657.268184118
 925348.761987493 1364672.21863936 414004.111528076
 -734862.456460789 -628608.243295968 1398151.93972071
 -1117930.16450184 -852622.424931108 955650.117878649
 -600358.421303424 -604511.593827431 1471100.09819124
 16572.7810179767 1697488.58540991 -90872.6874941100
 -1534270.57704448 602215.535650074 -416353.509697333
 -1011625.63001152 828617.058624867 1086281.43446331
 -931536.920026806 1251627.86671138 675030.851071641
 -323929.950299578 1649549.89449324 -253089.969924271
 1476372.29584683 -297060.328653289 -788720.486101619
 246494.616605505 927669.653596155 -1403092.80440792
 29540.0557022029 1122942.00456708 -1275981.44167068
 -1237288.93783510 555882.247599068 1024749.24304197
 1311276.75217536 -277605.640721595 1045699.95096298
 -1015168.85644751 793064.318056758 1109270.56227245
 34193.1607902663 -1207944.59163263 1195700.92050673
 1116484.30443516 865690.633082521 945538.220138727
 -292712.141827955 -273119.021583055 -1652188.12550993
 -153946.673450688 1458344.24758315 859960.741705461
 -474875.218155384 -1045851.54416026 1253270.95025755
 -711228.196076656 961306.944917416 -1208322.56072586
 -43425.5575699152 -1657025.77249646 -377332.492945212
 -422742.950172016 1000466.51203030 1307805.47345000
 -1373009.78398351 -773462.432679523 -637651.941359101
 -930001.026711189 -199639.695027187 -1408986.18960073
 -999039.246135634 497528.097720405 -1282336.29624193
 1233690.28958601 -1145899.16770366 234357.348588136
 -1086892.52282931 -327808.970983264 1265387.65694969
 728351.739187837 1175813.11715113 -988416.540511845
 -1292615.88088384 -145450.594819366 1094526.52272733
 -1227019.48596990 878387.607294801 782852.727146739
 504418.486737268 786757.773002586 -1420061.33559706
 694284.279399681 502352.536584734 1468200.00965991
 65014.3630683151 475748.506209615 -1630777.87924479
 1020750.09731112 1285551.26044306 -442071.482469303
 1669629.54258339 -265575.107995040 -178345.318262680
 -1553686.46687201 536125.296866145 434313.284069172
 -279119.258421303 1596083.88443603 -514401.276652721
 -1689918.27535272 -139541.698271839 -121261.440995500
 639536.064950123 1290619.35655711 -902937.039946980
 -336016.059444636 330252.119266545 -1633409.54616877
 405472.881964982 592974.140024391 1540770.39537153
 1302220.83920951 -427291.343043952 1005804.65006291
 697454.466283330 -106172.435034823 1546701.22567360
 -1091947.36194608 998389.335712020 -837179.606222881
 317025.418808326 1355380.66753704 975929.367268065
 -1676749.39201774 -151739.016655969 235556.250590853
 -135579.060069177 -1298913.88643911 1088320.28102319
 -1340247.97115521 1045157.71902650 37158.0162771891
 -1151650.97461456 617040.861349227 1087639.92575427
 -852622.973668095 -1064155.09095566 -1015188.65594850
 -984479.444373913 600624.670107372 -1249019.70731596
 -904838.089180053 352300.593077934 1395404.00045504
 496710.878010566 -1423400.62523318 -785626.478520011
 -386571.235831805 -1594766.10996711 444166.336103772
 -1618253.83707322 452052.194320276 258656.784964212
 -740618.848361174 1361141.32198256 -699126.614458166
 415475.544972709 -1518116.22266829 642419.805112658
 1291396.05101030 -704983.731304709 851642.048064035
 1083893.52398709 -892186.388312403 958737.856334529
 -1579590.01409314 -421007.563814717 -466527.618247885
 -401038.827327255 104725.843480696 -1648696.56295003
 270698.515407402 -135848.110038746 1672802.32088407
 -1140726.28777888 1127381.38525537 563697.390937633
 1272.05532249967 -584910.193787607 1596207.52005452
 1403694.78980941 289626.284506695 -914197.764373093
 -160733.079068944 1392581.25286288 -961708.028181041
 789792.933920117 1126163.01019161 -998991.489456256
 1629770.28969817 -472622.159321623 -102357.693093021
 -40900.9087247576 1243076.46695806 -1158916.74116848
 526378.924351723 1105071.13025807 1179721.58794712
 -347121.361404465 -1622248.23198763 371237.705883621
 640419.722763420 1379815.99208202 758927.141885395
 1574943.35067842 356923.788822047 -531186.267825827
 -1578340.65559405 221956.772002078 -591249.495781064
 1530340.68500253 182853.853299161 717371.491041864
 381760.730563487 1360298.22751074 -945435.072773781
 -591004.610787941 389244.569551536 -1545704.43976267
 -1028642.29011577 520173.527767224 -1249525.72602391
 823390.616013994 228095.295221675 -1469693.99187648
 508635.996532252 1536975.65096798 -518647.540593039
 1528967.09051919 -726485.148135042 156457.552225773
 1609737.66490507 -525688.691706175 -149653.097523014
 -1339765.65322768 -526220.953993302 904499.586517193
 -1629767.33708540 -278818.505417253 -395118.549306970
 558271.920608570 1456882.10354179 -675149.612337642
 528725.470443232 237822.744784141 1598089.39642559
 -842298.231681017 269254.710247183 -1451907.56934343
 -531331.848936798 -1448085.45234261 714657.252827600
 -1093298.92447035 658649.260673703 -1122888.51323983
 1573849.68159132 -29318.4017143517 641979.447549392
 -596746.877695021 -1586246.89888842 -133093.725352107
 -573741.072731434 -277625.368057194 -1575990.27169335
 536359.194359956 -873586.350452064 -1356158.43577710
 292315.318371053 815802.681218706 -1462538.11572964
 1587573.24864439 -557569.515045602 -242337.401324077
 949232.129285313 -388111.589400198 1355849.46026678
 -538713.075508987 1003511.54217558 1262043.10821621
 315593.559314811 908366.289245743 -1401881.37511022
 -1141727.32725844 -416278.574485216 -1188768.63123816
 1319212.07891697 328665.333872604 1020616.76899313
 -1215301.93734900 990979.147376980 -656507.068156735
 1588180.63381675 531173.959429739 -292466.235988297
 709594.868770954 1515373.18599276 -300198.649877184
 502407.588995529 1557013.21063944 -461840.314842639
 -295688.050213335 -1656677.61472504 -240806.681447980
 1550217.06765459 -156376.425649002 -679980.482553473
 -163363.077128766 499922.987103496 1616598.12940525
 -456021.120547071 1494281.33742950 -670199.986738961
 -951187.457233430 -842907.782096623 1129047.78113362
 -431881.301030463 -1638787.36017604 133620.843985856
 -68683.7925866489 1600164.00715728 -569875.150216481
 563926.834890541 -1480481.69683677 616571.545095668
 -792593.109524233 -767566.585250739 -1293304.95241502
 -300662.501818922 372182.618127005 1631282.36634990
 428997.557559234 -1588769.52433945 -426347.855791982
 247252.871662117 1355304.65609160 995999.651923259
 199308.516266193 -1655079.85465845 -333146.799545705
 107666.910895076 -250183.936054422 -1678039.28274598
 647423.438194129 1535740.63305471 335176.967677683
 1527963.83218233 -429018.103040896 -609319.288063236
 146339.347796457 -778868.233962578 1503977.74897454
 1628128.89294467 -457001.698802653 174200.330798365
 1006861.53731333 -1282653.64777659 -480655.244977579
 664514.308222510 1113942.76938188 -1098886.81888054
 -1125165.08613064 -826334.477568329 -970141.670136124
 -692606.286391381 497645.010044065 1470593.74948671
 1423345.66134656 -717485.665885785 591017.298879116
 270828.803033898 1639573.69013144 -358399.043073479
 -74200.6023198092 -1587479.12997265 -603659.078053702
 495257.422112179 -584722.135415740 1517504.56677984
 -1216548.09395271 1051331.50233812 -552007.977561459
 -193606.836080263 1659911.56379037 -311785.171902065
 1524564.23852741 728744.245438277 186106.709561879
 -1116103.85150567 -776554.118935641 1020429.26899335
 -1520562.08330821 -386987.789095875 -654317.508474348
 -422389.402510780 1635465.28107060 191938.810716467
 -760322.001621502 -59158.6273048882 -1519345.48759184
 -508887.142636302 1515487.60143257 578213.806445005
 -1538809.89518746 -195245.751431635 695660.264080860
 -1344986.29522225 -392555.444654419 962762.737405481
 989852.343435922 -278470.355439059 1353752.78368543
 258777.890236316 -442164.941396456 -1620963.96262369
 910861.076897041 -1433760.76830190 -68279.9961358097
 -1653309.82932579 258477.699537691 299592.868901141
 -1634894.54231725 -463240.100435384 50283.6439597488
 20668.9705460265 262671.955825012 1679457.12576405
 -1654577.81732346 -19320.5154765026 -389870.445280023
 932317.754239947 241493.494068503 -1400879.90115197
 674682.899124339 1558836.05562914 -69520.7688375443
 811637.596816899 -1157958.98191921 -943597.057872641
 -1557711.93278859 -657909.372998592 175182.166240249
 -1370743.76272056 991814.060627860 -165427.948375001
 219867.436360119 -1665494.00601432 -260361.338064633
 -945468.337252580 -644988.420755160 1257012.15600511
 -701086.965673184 -886923.399177116 1269584.16442364
 957135.561979470 823136.409226506 -1138568.38521010
 -390490.658636526 1522820.25512871 -646943.209321606
 924333.354139551 -1400432.88311370 -272755.550482435
 1416594.67815923 250786.300778401 905740.442484957
 -636349.188903431 -1034422.62382019 1189550.14400861
 -1651678.72144016 -362312.115976903 175178.000211617
 89613.3524689358 1680396.30056951 241324.926378462
 51461.5881684154 1677611.76444550 270130.473544263
 -808096.899429296 -157504.860498239 -1487337.09025634
 -126906.907939099 983653.344136649 -1380695.74319838
 1384962.80699854 28287.7401371661 -985432.812011375
 1280133.86147130 -682247.055222203 -886451.494643227
 1507518.58819905 -179214.734192618 -765029.270866545
 -504607.205901775 -376613.117140296 1579092.81796539
 201007.148559830 1466652.17424799 -835779.591759388
 -695127.425318196 -265656.815910097 -1528471.23582062
 1450640.85832631 229210.691379017 856214.668825434
 904775.657139848 702173.848326977 -1256317.19600300
 1232808.21062118 536772.517035928 -1040220.73656504
 1161576.83266131 -586183.535252150 -1094133.50411356
 1383317.63329881 -922967.273842579 352935.882024154
 649553.291502725 -1318189.38838004 -854667.922564223
 134840.905507623 1187943.88589285 -1208555.85480013
 -1148831.49917567 899210.667410926 872700.614252204
 -414512.825703710 1515121.61790103 -650065.843046753
 -594575.011857061 -1578832.40642064 -209209.913032794
 -1006953.16755756 -1003421.44196225 -932303.989134555
 -667534.720245285 1413418.13879239 -668316.214227745
 1454877.08520317 622928.687972076 620719.354178776
 -1096491.68328718 858229.412095951 -975268.303953059
 -55537.2010673462 1687921.22016257 194518.826396045
 -530631.168545831 1487117.50737378 630009.588998519
 -594188.145251503 521504.090474068 1504983.03367892
 -1120885.53540334 -864674.991552224 941250.644359789
 -558301.494486591 426580.476924026 1548007.92567781
 -1086502.58413064 -1293888.83083340 188052.726973125
 -960513.927427883 1080428.12837980 894476.413676058
 -149800.967122039 1549003.39545440 -684213.527431333
 -188049.614279778 1392210.62640614 957281.000694695
 649416.375598511 770210.480032002 -1369318.87723545
 -404721.976421186 1003286.78178676 -1311341.20475706
 1616577.63906187 79090.8775738452 520020.547641875
 1189280.95334877 -1214667.94494690 -13877.9508691189
 -1482162.28427150 793896.985328557 -250843.656027659
 664188.523297505 1557534.30766726 151461.169807160
 571812.263126657 1588950.11634263 195622.758166588
 -1311304.84709530 1044738.21486783 -281072.340117578
 263539.989597519 1245264.71372077 1126881.74474736
 -1052635.98898213 -1332233.01067617 84336.7059134565
 -1043418.27262979 -1282672.76869535 395004.907298231
 -366199.856174169 1489140.57253982 733728.846750474
 -228164.294400823 639782.645344469 1558402.77896204
 -1520215.07178898 715254.160494256 259533.468749753
 1188660.15250205 -24367.9221949110 1215110.38437736
 1613570.46695055 532223.335460504 -55934.5097080753
 -1155009.70980438 -970728.687926170 -783350.741810287
 744956.910302973 937648.594003192 -1206587.88157170
 1020689.51857216 -1242853.47103599 550915.743295388
 -491121.731817905 378693.320090320 1582842.63711057
 671376.527549098 1219301.86216665 975990.024115537
 -1518846.41856465 -548127.799101092 531659.169643430
 -329809.931095610 -1665237.65183436 90603.3788768875
 906991.632469754 64311.0582658855 -1436394.88526469
 -801146.121825677 1488781.45924060 -178029.935980213
 528959.935106180 -27555.5727213694 -1615376.76022173
 868303.598166103 1442233.64365031 -236666.386576034
 -1279392.10929960 -498795.953812983 1002176.84423544
 -1445308.46478862 -880332.483462530 -161549.249986040
 789642.245330905 -1410541.92533705 526152.640642641
 -774992.680484945 -549472.733658893 -1409775.18071506
 303005.683103885 -1668933.22851166 -113355.347365744
 127390.034864101 -1610662.63643358 -528713.202610029
 474895.665602305 876445.159133498 1377068.62204597
 1163638.93099630 -671523.416763463 -1041633.68753516
 -275618.044039984 359818.597499601 1638464.30253851
 929409.074340787 -1390396.28320877 -304954.009929777
 -477928.004824435 -581329.525794827 1524349.30532463
 1292140.44126668 528537.149438356 -970062.658649810
 1695424.05445500 -34324.3011004710 119829.536965415
 1248680.36716932 -395504.250644406 1083685.25336839
 1480925.94413200 -826075.744769122 -120238.146612772
 163112.122711059 -54381.4381013583 1691282.67732355
 -1521762.40771155 -756742.494314667 39748.8587806679
 1165289.58630575 967497.527615207 -772041.912143277
 1136980.53604785 1051367.65892068 -701356.761159402
 -1252488.16906746 -975438.586958919 608106.034682796
 -1101416.95979246 -111708.100639186 -1290117.04156372
 -604791.899308197 1522541.19618879 -453976.942629469
 -756593.638729380 1346365.38789435 710539.448668636
 -523497.544485200 -274415.408053369 -1593940.55872259
 -863527.646934324 423598.728731417 -1401743.24325006
 -1621128.44395349 282097.580175126 427040.423688758
 -1302465.54065425 -159946.590025636 1080740.76620964
 856978.522164208 369021.033642451 -1421059.91755404
 742174.544847465 840602.483297228 -1277718.43927173
 -1299988.76652054 -1058066.44753110 283768.566845130
 1360906.50795324 714718.516572748 -726024.048278417
 101701.737861519 -1664627.62509820 -329653.797605734
 654106.631565770 -120831.228259414 1564462.95220405
 888706.763306857 1448781.90871949 35089.4545379188
 -284427.215466477 952843.545054276 -1378836.58848697
 1125763.95124482 -1259078.18943600 -193332.974332415
 -1595544.91397907 -580614.133388374 84401.7510788898
 209557.608746232 -974856.956989920 -1376858.57008805
 -119311.429240611 -507920.004927060 -1617956.13396886
 1205893.10525471 -229760.399099426 1176023.79980374
 -370003.877950847 599643.417644977 1547102.09811001
 1349247.28673170 182115.531272972 1018020.47745432
 629730.670738395 141291.367038376 -1572728.84882671
 946375.397498968 1334701.13737192 -461461.245292354
 1230986.05651416 -586547.262825592 1015202.26415209
 -490197.661882003 -925997.994589974 1338743.42810740
 -1315293.23145388 -188780.622895982 -1060361.06667051
 -341861.778177160 -1254214.75993799 1095479.73992003
 138625.685351092 -1637724.16328185 434329.925705923
 1010530.94940182 -139138.734886738 1359951.32734785
 306676.029650059 62233.7593325828 1670950.85865426
 1364502.32402230 -860450.777117048 -536430.673895908
 839039.141097626 -9291.72102844312 1478488.07354895
 571530.706677979 841866.614815030 1361841.86093102
 1524987.25499607 518247.470464676 543905.719271742
 7241.33677256568 -1105542.22691109 1291403.86694412
 -130671.405983008 1360018.03677528 1011571.01742999
 305715.916266653 -1196057.85161300 1168752.92262144
 -1108883.02306146 1036634.81632099 765353.969583502
 -1326247.78530307 1010211.17998994 332475.839426017
 -23150.3027321591 17107.2844704632 -1699756.27791206
 -248117.693254098 199394.254777202 1669933.99314347
 -375679.481178183 1403316.48470596 882931.351337229
 479068.417075220 1630677.59317488 -37202.6730009879
 726318.787643127 1511885.83209646 -276879.485376952
 475081.130027084 -948535.153512556 -1328374.56406057
 715567.693555665 -918568.125396168 1238626.44689414
 368753.780131192 -403384.646988895 -1609751.99214432
 921884.626756609 50548.1663754689 1427436.02932878
 1356734.18922580 -549503.035109562 864475.999777439
 -124643.775658115 -1300050.75880415 -1088270.16577799
 277654.669549092 1619022.38041355 -437806.368384040
 -632124.564220910 291887.202947559 -1550877.29884217
 396552.230213416 -1330929.11652559 980496.820748129
 -759346.385734626 1214305.62542742 915890.230610127
 1404461.92739154 917298.887808785 275770.638271047
 924182.403935995 1023744.54643074 993898.379065191
 -167436.781444634 1292766.95434672 -1091200.49760279
 -555744.982417496 1567297.03524306 -353167.832391451
 787956.192438989 -1373066.85562441 619525.987173052
 468713.438164030 1345831.14404557 926847.476449852
 1386882.73410897 853568.733727988 487828.554548045
 222526.708937737 -1685279.97389328 17699.5311690613
 -378677.710545675 97724.0868739398 1654404.18108168
 -709098.220139190 -1543364.04096206 72160.5935444555
 -808091.313238753 533014.053955875 -1397456.42069926
 -560990.881360270 -1411059.55655307 -764329.875702155
 -745791.360964072 -787454.397792593 -1309087.78059703
 1628397.17576859 60246.6920530754 484451.209148606
 869822.772685979 1323470.06964755 617928.247342666
 646852.158628528 408545.739869806 1518114.83864425
 -1510844.13067705 18145.3487344846 779115.369581427
 -1593839.14133157 518864.704317772 283648.039254036
 750217.089933680 -856033.416044399 -1262688.04880176
 -429060.585056420 -1261199.43507675 1056069.59965389
 -1572486.88531715 -300169.548533240 -571999.333600054
 61144.1555691684 1642479.71712032 -434190.938514492
 1437134.88234948 757120.437120931 501409.985568839
 643025.200140542 -711412.078338602 1403713.44895537
 1046927.10966502 525870.372359811 -1231829.52494353
 810968.791620114 1417429.83737775 472464.046388184
 113559.035481887 1193320.13269422 1205442.41105375
 -911159.686901284 -1430283.63461084 118645.478339263
 -307333.522026869 396167.644481975 -1624375.97362931
 1419486.38919326 -369375.301470985 859430.205169858
 334069.372267252 1231319.89764556 1123498.53768267
 -368788.791704301 1026496.55051896 -1303955.38991407
 942710.883671652 -1410866.63136248 -103689.624914478
 -639650.044634089 1489205.99215988 512945.741102040
 -1568319.22640054 -510328.802533656 412236.967540475
 927740.627028794 1124708.95000045 -874258.032133020
 152869.131007246 1577577.26044980 -614720.274675235
 -794747.979680679 1475252.82357526 286364.724305725
 -1484208.51346248 396357.262572583 -728028.851743840
 -1386338.52119711 -875203.746338618 449537.436750110
 1476880.25997642 800851.394044534 259733.983815944
 -925886.364373775 -83006.0011487541 -1423321.62354122
 -446347.526120813 -1568586.28429971 -479907.235445211
 1510226.58737401 768787.775929187 -134836.977014883
 1592558.21627302 150360.273482106 -575456.441392120
 779562.925539162 1306833.92826215 -757935.834400070
 63410.9472640599 1167058.12620404 1234485.47250593
 -1244037.95247830 556177.373939242 -1016383.93410741
 -1223192.29164634 -40962.0926892341 -1179882.50458234
 -9683.28531653579 1677197.98219718 -277332.224054791
 1399472.03586248 -646060.437255999 716996.465996520
 1366410.32589564 985244.314080237 228509.218322451
 753607.727519336 1382314.44211495 641312.853561809
 -1591490.76893776 -375572.877739431 -464867.880039485
 -1567818.19205042 -628486.880637058 -192224.757882155
 -698577.524867146 -1487357.58748659 -435610.891388832
 -1148117.62883340 609322.929061853 -1095696.80043407
 645127.504453038 -1512627.83596921 431007.578644867
 814045.007880041 47474.4273986283 -1491669.16703697
 905458.744906567 1341864.78381779 -519175.657385690
 -190688.480421409 1679487.88572537 181544.333803881
 -682137.734274993 334120.368295800 1520872.01662995
 579827.371864813 1176334.41320878 -1081682.74791508
 -560071.840104174 -918577.264783774 -1316258.08356290
 1068007.68789979 1319538.43179557 -90431.7731853627
 -635536.852248116 806573.682135751 -1354817.99689867
 1218624.87650178 700050.176574856 -956495.248628313
 -322708.268173077 623793.909668155 -1548140.99225931
 1365099.42839854 665123.491928566 -764273.701674157
 -702181.793384036 949378.635214436 -1222955.81933214
 -1322359.08606743 985792.590201033 411800.214423995
 -712335.728910212 -680876.451096454 1385274.36548153
 -1141245.78554563 -1033776.10690553 720322.856617482
 -589353.896682999 -711756.582799957 -1426907.33802356
 -1627617.10702670 -444494.434444747 -208055.883506551
 -270154.535662514 1264226.79125156 1103968.81620033
 1036812.25146883 -73460.8089386557 1345222.60788102
 480571.144614402 -908259.303993499 1354295.54074185
 -29533.4368923189 -1647729.72410017 -417270.334941408
 -184272.751601784 -107440.997721708 1686564.55109956
 384241.825226919 834479.469396559 -1430385.34489903
 1374690.86920649 -511463.617147190 -859435.851273977
 -726775.551516213 1364743.80324939 -706591.571709356
 748994.786418798 1391734.74741122 -626163.878521985
 -647025.345731150 -1093953.74044023 -1128992.21244361
 -1492398.38791581 -794445.890809373 177771.702816847
 1395677.28430355 -536660.334833324 808752.498046005
 850767.817189791 152824.935259563 1463843.79644723
 -1473905.10817555 309549.725995247 788531.989985369
 -1597462.81992063 578323.394846253 -60453.2045861708
 -887826.966193553 809375.615261591 -1202777.78143740
 4018.02279753735 1659713.19972687 367880.347593045
 1486937.43785657 -427273.266617551 -704595.353046339
 -1061426.49524598 148353.795688955 1319607.87603535
 -117578.589375089 -1636618.13799610 444585.588725884
 975640.985524216 -866847.594146037 -1089357.57026266
 627819.906950653 -788228.472369949 1369137.69935015
 -1389855.08797777 -172646.477134111 963584.987614216
 -1636641.93207930 96765.0132377061 449488.285022933
 -268588.231410043 1222678.55294497 -1150181.51529070
 1147264.31844306 -186537.808304971 -1240559.64374961
 220164.870355714 448961.771365088 -1624795.60490358
 1491708.78842845 -721403.642306738 -379975.887908545
 521914.395768844 -1278540.22694746 991433.432745926
 -1595598.83302008 -183641.680539743 -557081.768893494
 -383367.696085751 -1242949.05071920 1094580.68086100
 847029.192594655 379986.037179198 1424132.07197974
 1247770.00016204 -747104.332846894 880286.966015633
 -33325.6233693941 1587046.84919767 608417.374241396
 441204.762850966 -441420.083066628 1581292.72037250
 795190.681751078 -1194774.99803312 911144.600890117
 -1236464.22825447 -452090.105740170 1075532.77427465
 558763.283133117 137022.115143363 -1599690.13667771
 -1475966.45866088 -796303.727651127 278250.581736985
 -1392910.31049744 958875.209385935 -174238.915673300
 -1616410.43565866 -458734.698559519 258417.839615007
 -1153835.58977477 1245003.01307022 -92902.7944423296
 -512710.253828952 1556814.19451902 451062.921733473
 55096.3670014472 -1667219.60432650 -327632.692649307
 363159.128844879 1338882.58220565 982603.113267483
 -373864.206775748 630828.337683497 1533714.82462269