# OOMMF OVF 2.0
#
# Segment count: 1
#
# Begin: Segment
# Begin: Header
#
# Title: Oxs_TimeDriver::Magnetization
# Desc: Oxs vector field output
# Desc:  MIF source file: /home/martin/PhD/repos/ubermag/oommfc/docs/ipynb/thetaevolve/drive-1/thetaevolve.mif
# Desc:  Iteration: 662, State id: 1333
# Desc:  Stage: 12, Stage iteration: 50
# Desc:  Stage simulation time: 1e-11 s
# Desc:  Total simulation time: 1.3e-10 s
# meshunit: m
# meshtype: rectangular
# xbase: 5.0000000000000003e-10
# ybase: 5.0000000000000003e-10
# zbase: 5.0000000000000003e-10
# xnodes: 100
# ynodes: 100
# znodes: 1
# xstepsize: 1.0000000000000001e-09
# ystepsize: 1.0000000000000001e-09
# zstepsize: 1.0000000000000001e-09
# xmin: 0
# ymin: 0
# zmin: 0
# xmax: 1.0000000000000001e-07
# ymax: 1.0000000000000001e-07
# zmax: 1.0000000000000001e-09
# valuedim: 3
# valuelabels: Magnetization_x Magnetization_y Magnetization_z
# valueunits: A/m A/m A/m
#
# End: Header
#
# Begin: Data Text
 -755337.144028212 1429846.80250633 -524408.161848899
 -712335.640687608 -1487451.56572982 -412390.318283643
 950517.705939578 172050.306366206 1398897.70275551
 873475.122407285 75928.1308135086 1456460.13659377
 1551799.40210549 -70044.7206482893 -690660.808743584
 -745662.390132258 1525553.24356449 81700.0672711548
 623409.787769952 -734965.437010112 1400423.52269346
 777346.290960883 365002.305033369 1467142.14077903
 909823.966846632 -1133562.45296161 -881621.525705400
 1152050.90945144 1087747.30581331 616104.293710069
 -1197082.75025679 -837413.734812591 869327.973658312
 874868.535744519 32508.5299416060 1457239.93928429
 1513697.69220956 -3941.68034782021 -773759.497360445
 235040.692838099 156443.558793622 -1676389.35979151
 -680836.321505164 696698.949384657 -1393223.77141852
 -297724.371599709 913187.750296546 -1402657.59587431
 -1625.81154940346 1579394.73408425 -628895.564210580
 51285.9153378432 -521630.518051346 -1617180.06342072
 657139.790098652 -852013.071458210 -1316146.27695156
 -471927.401354801 1578444.78629053 -419281.032820153
 117261.888445101 1681707.12616276 -219341.722733428
 1646518.25905161 204045.091859068 -370598.466129967
 676419.850520283 -1558773.52601795 -51781.0815616434
 -1644335.44082511 188333.255134121 388190.086242661
 1036490.15380118 968781.979443946 936562.671356210
 -823441.532674367 -1412986.98195839 -464124.801193620
 -206001.240155227 1553724.62870131 -658409.650006347
 1219593.42838479 -369722.455418956 1125120.96034142
 517072.486416995 -1542039.05342520 494723.762823325
 -1367362.12236207 -397869.525790378 -928450.680853237
 1331079.54534017 505296.508697248 -928925.552601170
 1513745.47327154 668482.060260373 389495.028543346
 1400535.82853406 396389.574749626 878279.396332525
 951246.033084991 813420.683569600 -1150425.04148738
 734192.312442021 -1242732.50218724 898096.640879187
 -424968.556044409 -1613419.33487537 326005.791702944
 -626967.072283444 474728.952803718 1507164.46071496
 1047161.20109102 -961834.761077268 931840.818655768
 -742121.174015991 1455937.34528724 -468511.056086256
 428346.241655046 1144463.24039650 1181830.52450050
 1641551.94617625 169737.024438948 -408039.888417250
 180760.110735833 1625240.58489210 464670.661422009
 1697014.02761844 15089.7094952775 -99577.5613960184
 888046.020702220 -792342.101235874 -1213906.19889845
 1314662.79210152 -489260.072654645 960357.394082958
 -323753.879131781 -1635751.69114494 330907.586288975
 1033813.47255587 806351.597020015 1082139.91976327
 294923.032533452 1591817.51461151 -518784.545892912
 -988525.135041533 -1189791.76843184 -705133.749839675
 435714.617100849 1287025.87599428 -1021624.76818342
 95531.9515586795 -1217066.93023343 -1183056.09907712
 -1693286.96591955 -141849.585589555 51555.2724270442
 -325277.431498506 441500.104698688 1609121.57716836
 -776098.628121428 690430.487795875 -1345725.32893975
 873354.850545339 1458261.64808187 26912.2790277179
 1205632.90822860 -1140434.80554757 -368588.856168927
 -12753.8234600514 1324110.29719703 -1066100.02384577
 -629160.081978528 -1547930.25870263 -313160.510661217
 -1055887.88306930 -603088.094905111 -1188017.47805795
 777676.786735893 212202.505903600 1496726.06440202
 -260109.885639174 1565641.00019345 609188.891811106
 -597072.313188617 1541178.54405100 397835.830689555
 1598397.45938046 3489.42096543409 578889.787254378
 138570.840633972 -1586078.23680749 595947.941393911
 369108.062252805 -823806.434086850 1440521.50193501
 1059170.53144744 746296.646615560 -1100544.91074364
 142476.636623831 -103197.503118985 1690872.75788759
 1447277.14119135 -807139.880792522 -379360.105202471
 -1338064.85036041 913925.376869099 514123.391555618
 506155.754946393 -1620964.15587206 79256.2749101373
 3242.54751223379 -1693316.30535192 150563.527837744
 1530421.95016390 -509896.819960369 -536482.886447297
 1059969.11882771 1154137.24827408 659115.072865084
 937781.032569041 1403741.57755511 200190.705071036
 -1154815.21639485 -1040065.52284272 -688959.740606687
 1232793.98292556 -1149627.07423027 220400.966103318
 331556.129670724 1665204.86465837 84636.2309880893
 -1027680.66247014 564032.641345562 -1231153.78222287
 -1492635.88609926 -647068.238162272 493295.861213371
 -822130.957336468 -313005.244660410 -1454691.85939982
 -1022774.76500244 1341641.63553395 -209593.658959393
 -1334265.17249166 -772081.966097018 716676.975424468
 1014267.71925595 24315.7711780026 1364063.68507755
 -606714.727540175 -1470268.52684333 -600173.057009216
 -334103.449731894 -1645741.59666364 264404.012617546
 -480077.398597773 -1516997.35830422 598535.467832629
 586179.273761090 -1463730.79886388 -635520.265192416
 611632.274949614 -485480.919191107 -1510037.82646042
 -582733.882240585 -1582568.64617061 -214237.491225328
 419321.544190881 -1269764.96315584 1049698.23326479
 809763.129977907 -468554.132739213 1419415.61849283
 -166818.966141268 998428.440075932 -1365764.28514700
 715080.889991267 108332.928618775 1538480.84074719
 280756.118732647 -349634.707336752 -1639796.19868437
 -1127462.52465685 -160968.823510186 -1262108.27322863
 99992.9144660663 -1539642.47927650 713794.405318427
 188345.465081359 -1622921.10420900 -469737.240695621
 7823.34805119742 1687280.12456297 -207423.664223795
 -778772.223274956 -1223862.88647417 -886382.230962743
 -636463.417772264 -1538478.76865882 343507.490782487
 -341922.147635530 692094.489779305 1514626.83924900
 313607.105964615 -605184.688303174 -1557370.24375448
 -690004.742612333 172821.530075736 -1544029.20112114
 202789.198753488 -846849.884079583 1460041.71676816
 -1602077.20250222 455007.434336858 -341052.594068509
 -1320234.91065005 308795.095797394 1025487.86902251
 747614.763224752 -1387010.11176055 -638181.099439947
 1538194.31082111 722148.416708270 -49597.6451387424
 -1447917.07492999 -745878.950346350 487032.581616894
 422815.126544433 -1538388.49400552 587016.362869593
 1653148.62402896 360467.160856248 -164812.174354310
 438797.113336131 882868.242197057 1384919.04465487
 422467.453279671 1624749.52147022 267787.683439125
 -1327544.10443014 548772.430228445 -909106.963241373
 737272.041058990 -1327664.44012365 -764026.879045405
 874188.648854224 749766.576586753 1250457.63096868
 163652.340895244 -535108.978863574 1605265.17811204
 -149292.793835647 353846.732288545 1656050.76967992
 -798419.854831674 1488877.82558108 -189125.767423468
 -1420763.46303849 -444728.220389824 820760.618014645
 1300692.75061983 844899.115366162 695948.168571835
 1197444.58306466 -623338.320052086 1033235.60200166
 -887183.247667100 183756.353289890 1438450.37720613
 392459.783865172 1635377.83664884 -248021.469728473
 -1352285.11319484 -963920.617757635 -363568.446504038
 1595319.74599183 -338761.720040897 479786.832961775
 1109677.92574977 316729.541139740 -1248317.78761384
 -1123752.16966153 1078994.57793584 680405.586371874
 -751907.202309161 1264758.54356712 -851481.876254323
 1617435.05792943 -382637.476705213 357060.771860303
 -1028295.39910475 1230488.50081868 564363.908779606
 525445.473991810 591598.064267467 -1504632.44156721
 -421891.701344042 866861.876139345 1400199.22869326
 498501.972883542 -1500259.26567825 -625074.330602194
 1421648.02589953 924972.670589523 -115509.519601042
 395150.470550544 661509.846034328 1515341.81926829
 763145.773897776 810782.309347680 1284616.89800143
 638048.721177858 -498144.180453096 -1494906.75457836
 -426353.751962562 -1515188.90031392 -642203.296902889
 -359234.439826857 1658965.63644389 -93721.0453451769
 -905092.275841952 -1436846.09029961 79254.5582408209
 588195.445817028 1586269.53547637 166658.568155673
 927480.219699086 -124876.844876747 1419220.28440992
 374425.940611739 1542900.79519958 607669.606916061
 961648.335669175 492095.057645015 -1312659.48849885
 -665284.251054122 -1527040.61935976 -339917.360728635
 87599.0617359382 -1673569.11144514 -285469.496793814
 1300700.77347201 -1044083.39558868 -328736.004942160
 -753959.707518393 1230705.93592803 -898280.389806157
 559484.286536295 -323165.160309842 1572431.75123148
 252262.913953701 -1582553.48833439 -567351.635940397
 1276827.88462797 -1016295.25357895 476292.463292626
 1543837.38014298 -711720.844043704 -4425.36178920667
 1681736.67633483 239798.956763854 -65254.9753293232
 1584155.35079814 160670.358542185 595513.946455952
 895132.201317116 1386158.00307350 409028.523064678
 1655081.69570162 -385781.098309030 43330.4135788991
 -1384349.75489676 -884889.197889494 436516.739170196
 -905025.010807817 -1080255.57111128 950777.382406292
 606465.055973276 1171555.98787575 1072220.45455019
 1504251.17088891 695948.113244229 378000.844643425
 770876.829996929 -1487959.06070667 -285878.902045607
 1199204.86081525 820214.810508744 882697.777508919
 935475.697986483 885769.954840868 -1109187.45285813
 77105.6328818424 -1224184.08515206 1177042.07530500
 1320404.64267484 1051932.33751031 -199924.828130030
 -824862.948129758 40237.5166475882 1485928.01274379
 -1555936.31083055 650157.777918445 -215306.898289803
 -352658.513147735 -1657048.36293797 140793.096382620
 1640041.75828706 270706.802802776 356343.735725766
 1043111.02874679 -773805.794118379 1096879.19785892
 115406.841631674 408937.160052135 1646041.20848571
 -1485383.24723337 104615.196203129 -820178.193785851
 911331.495257006 -967032.619491962 -1060340.89734912
 963340.072960969 -1379216.19410275 244414.798554200
 -1062539.85641629 311858.186782825 1289865.70032054
 7459.64967594931 -1332326.40909855 -1055864.90293279
 1677098.13070457 195151.800765862 198135.394730673
 409401.995302579 -1582834.73306190 465858.577311977
 408763.018531214 -219551.099526864 1635454.09882937
 1633495.54330868 53579.1061863759 467783.699342917
 -170830.426367081 -1277452.23800589 1108572.39052801
 -1582641.66678580 221.136131683531 -620681.323750186
 744841.253797885 -1465895.97875998 431694.899316782
 -1230250.28683080 -1166593.35429425 124676.290726068
 1431316.07694717 898805.708207209 -182982.476665667
 1278217.63348871 -1057964.51845764 369960.483191420
 638849.517451368 1190609.84818852 -1031658.60799426
 812719.018885024 1387074.19337359 552732.284582306
 -1612007.51676215 -539461.244118359 -20330.5680341127
 1357447.89278497 1001695.61159017 -209621.373181862
 -1181249.35330318 -356742.637462109 1169352.23775276
 43857.5658785857 -635229.429702520 1576248.73847849
 483485.840473090 -1431172.24473279 -779735.498722827
 -1455788.26008794 765223.002006052 -430249.112713768
 1281291.41511051 184063.227197366 -1102004.10069917
 244258.745453151 -683407.829200611 -1537300.03716157
 -1619809.59717579 392609.694873682 -334775.292380441
 1375892.26658522 506816.652478329 860265.860953258
 69785.2811455919 -594545.289399586 -1591114.67637886
 1690287.26077774 173776.411278970 52256.4343930278
 -1419407.33450952 -263906.536562502 -897572.369617166
 791354.271796486 1089702.59519930 -1037452.00878179
 1643615.14328869 38860.3687109615 -432457.087461567
 -335342.478025316 -398151.998295216 -1618338.78056647
 -392917.469485016 77798.6928338441 1652138.98494250
 -683873.710479165 877024.578577865 -1285746.72338131
 1387925.07009627 76614.0567914744 978669.651159277
 -731469.182152854 -1187435.94582016 -972084.723743159
 1062474.69011233 246452.515365107 1303997.19729028
 -773714.925052566 1159036.89772408 973652.240004121
 -1031003.86981151 -218995.803092625 1333818.52538549
 1054783.13930399 -634608.053233371 1172478.20781939
 1418965.50269032 642800.771586544 680693.815325626
 120342.913713417 -34329.6064527855 -1695387.58437113
 1468983.53725965 816803.166069644 -254793.946471929
 -1527648.81582087 503564.517378480 550192.577520328
 -1303155.06393016 -743854.146263187 799041.856500802
 319411.457981624 -269656.203490217 1647805.16215640
 -945074.146724492 -80427.7073826955 -1410803.40270292
 -1098510.66085189 873922.890645275 -958922.890122533
 1559997.37778171 -156009.649799617 657319.686669740
 -342557.118752604 -1593939.42014600 481675.975419727
 124671.020722008 -417792.285578602 1643139.29497871
 -1661190.05442686 88375.1676845354 -350196.277550187
 -1430907.00793104 332581.352774200 -855508.491156411
 -1359762.34307763 2316.54384936838 1020314.16925015
 1281292.24879379 -901017.030406218 -660650.046619932
 1084094.71602510 -624721.675389216 1150852.49923062
 734521.145548320 -1219437.58632859 -929220.458121477
 -702977.317281061 1372769.27974304 715071.601996679
 -33078.4300476173 1568596.91200442 -654530.018498602
 237777.768740187 931787.317632850 1401868.08487515
 -922719.935064990 -303353.954016874 1395193.28410654
 -118073.337669320 -364764.690669903 1656202.10341978
 1655007.11628387 366606.502194941 128651.146897880
 1178617.62427023 1127804.13637352 478454.099928486
 479179.277825039 1521215.23857639 -588465.307070903
 999980.978564010 -1364701.29931449 166217.947765889
 805928.715361389 -1496820.40404522 2753.86815999492
 1281228.03572828 -989486.131542811 -519010.516221296
 1467355.44625541 829844.104808172 -219605.910803208
 392855.535527658 -560219.330224691 1556219.40299171
 1151524.92842984 1212128.61865704 307789.783841579
 -1637457.77556326 61267.1847610362 -452745.364767977
 1448839.00789101 -584693.050929702 670074.298423629
 -309003.940430956 -1011920.24731019 1330614.13560875
 -1360930.90039714 191426.500327711 -1000611.30281269
 4297.05999548896 1357140.17227561 -1023792.99082926
 1546633.87245718 -656204.169414804 -259460.502987912
 -1226815.80879152 685536.078153031 956537.117340340
 253663.824684000 -1600081.31257690 515164.495272017
 588381.710286726 -170445.022947005 1585798.05055772
 253096.596668686 102589.990107898 -1677920.56030206
 -1317098.30489745 -22414.4522080341 -1074592.78220565
 969682.244658241 56995.8968778102 -1395158.70499870
 526619.710604691 407421.683852035 -1564186.45050064
 -731073.008024969 1431735.23959636 552871.106710486
 729738.847215172 -1077474.01632438 1093860.57567264
 873241.077345331 682821.029782607 -1288877.59780492
 -603506.868256741 -231501.846712446 1572318.78286042
 1568461.35695001 208460.383746627 621669.719515720
 1245630.85420421 -1135109.62908541 -223450.005621133
 -1285820.84077238 702507.721017303 -862060.129774304
 996885.290496987 -1241301.73598011 -596145.718632198
 1214006.49668556 1033263.22100388 -590385.757048668
 -283639.863869996 1466558.86797941 811636.319033814
 -1043000.61650124 -975499.412762571 -922253.007410614
 -71972.3313861796 -808380.047564645 1493767.61318962
 -645933.457899815 -571036.720103578 1465157.68170492
 -555707.549718511 -1000067.52471756 1257399.72371205
 -1328790.35641807 -769980.748173889 -729003.316955367
 474963.814132214 376136.437850478 1588373.61958266
 889363.955720705 252808.173368748 1426576.24463005
 1195897.20037173 -1202253.34529122 120069.895807125
 -1244286.24547072 1107740.76124406 -338617.993040544
 331402.022691105 1654655.71527848 -205638.428443002
 318049.718665880 1585231.60536424 525247.688058574
 757419.814670506 -1452660.62801673 453973.924531516
 -1585111.20224768 -575866.137874628 -214010.905699362
 140218.736344951 -1554428.14590149 673863.372804216
 -8753.50581430860 699294.564621112 -1549487.16936518
 941434.986583402 756179.485478056 -1196617.21188476
 1494956.18180424 68652.2820359084 -806469.391022719
 -21347.9114871389 298138.359297231 -1673516.59250534
 278797.426385673 1342687.49841844 -1004719.99911993
 542606.776434332 -1543199.59004503 462723.363849699
 -570927.972258247 832545.693957907 1367811.72606658
 611547.160702098 -36578.7684883856 -1585771.75656936
 1463734.37425492 628510.798344634 -593679.928908455
 569542.504607314 -575428.389024440 1494825.57663105
 -176531.635738741 1482952.03122054 -812212.936785844
 -1156092.48817670 -995621.090849470 749792.506122279
 -970492.744644782 999174.205440291 974574.132518713
 954991.642133146 641307.345635402 1251685.20478989
 1348182.08802956 -785159.601266554 -675225.486822883
 627950.797714921 -446931.815335135 1515232.57227742
 497270.756080929 -1622548.89214725 100284.035311817
 1516842.62885483 459050.164838159 615192.153274752
 -800633.122436606 1412137.53489970 -504830.848685787
 1164645.83239841 -948959.564814013 -795660.624528455
 578357.440880486 -112426.788306528 -1594635.65990770
 592806.373345690 -1410397.82377672 -741187.278902317
 -895436.278503742 1309725.04666155 -610585.107324740
 595785.554954833 1192927.70856641 1054496.58825510
 845083.337097139 24259.7892412302 -1474871.38964275
 683727.993385567 -1476376.88831579 -492775.115755584
 -1422038.10471841 -422625.268587791 830177.999636202
 -1146607.88354217 1092642.07344762 617595.062100589
 1474655.64055563 831947.056885386 -152495.364904056
 320690.727958768 -37797.2968157630 -1669050.27526276
 1364380.94405331 851431.521802943 -550934.663262830
 1461643.26182519 171700.774658382 850951.126177485
 -199853.708854270 1677268.95802619 -191904.500986608
 -124826.780796436 736829.780640396 -1526925.06337326
 -137594.976402618 1621001.02504051 -493379.467840297
 -1464130.95470236 -846988.275622302 -170092.352681481
 778389.653163019 886548.197311482 1223986.04636349
 -490480.564620799 1627032.35498620 -46845.8275337879
 -1605478.04504563 -420291.944758485 -368503.633696583
 1248366.44912467 -531477.853377880 -1024261.92942465
 220569.634419128 34373.2827862000 1685279.65447955
 1300811.42302371 -1057792.76676182 281005.523642149
 763159.440391230 -184449.770819234 -1507834.85521010
 1220126.71047117 -987679.191647461 -652518.677726101
 -574788.969840687 1564868.17709015 332874.193172199
 1156561.35857667 1229928.33390518 199103.283007869
 1357744.55555897 938993.957148918 -405980.381653847
 -480867.248843213 -1423380.37677002 -795458.981982096
 826040.819864414 -575950.062369107 1369648.89280967
 -197538.805925606 1409916.16386186 929039.735982556
 1287908.04818193 888696.130890166 -664463.728407392
 -273111.536656880 -31216.4248719013 -1677627.97525647
 303961.796241080 -1206274.62336558 1158666.80260122
 -1168835.19850903 -1079115.42983312 -599444.883056360
 -23058.2605932581 -1694708.72927848 132025.147323215
 -283730.065192796 997434.471342896 1347078.96037412
 1513826.99654281 -769602.828450955 77713.0039211625
 -858138.602732988 -80925.1652054635 -1465281.28908273
 -70718.3259259308 -1453990.16820325 -878015.665661229
 -987174.462741860 169420.957394474 -1373602.24202855
 194901.871965471 -1583985.53078482 -585664.663923550
 -1651029.07574544 -375223.199636778 152677.901143258
 29791.3145968323 1339139.35388091 -1046813.38760163
 1545372.21637379 600451.612028115 375875.743395075
 -1516758.68475256 -145930.179182977 -753755.580431290
 1159948.02071401 -744409.723325422 -995175.739786804
 1093836.92817773 -1223946.14762654 442127.359778676
 180478.643306217 587307.448829822 -1585085.93453458
 -135756.490812024 1488678.98991627 809570.898800272
 1476973.76944531 -832730.903691077 122913.491563642
 -1068763.19742821 -590949.763798070 -1182591.90107578
 480007.908876686 616230.821712147 -1509917.87253076
 -415638.958922155 -128248.866742849 -1643410.01700893
 -16707.1786201739 430863.376421914 -1644407.98497236
 451229.772108363 1555537.27975324 516425.661698691
 -356582.356962202 -575568.792952414 -1559349.09089741
 1255977.69222835 -110113.759093019 -1140348.62944766
 -1610760.47308216 -50845.7553035048 -541170.405254885
 -577013.203313844 -294485.020116482 -1571729.72744314
 1075507.09267685 1153154.02086422 635232.475371397
 820747.414221027 458912.922199853 -1416253.01831540
 391861.071369376 -575667.838239181 -1550822.82700580
 166358.112473222 350666.688134377 1655100.55653643
 913235.960379362 -950893.235721132 -1073220.45029424
 -176147.470364933 -161678.511354716 -1683101.93620296
 -997649.464627741 531997.593804201 -1269517.27279093
 911033.410999492 -1433176.28431048 77613.5434872465
 -1581436.99297030 -484960.141166411 -392263.557757919
 -1302010.29286680 1088046.88770787 104513.958006215
 330613.277079956 547987.622437213 -1574929.97516527
 414940.674045060 -1552841.21450313 553632.007350972
 -1023399.46151257 307545.962267818 -1322145.61348913
 -773312.614339559 1110601.21644636 1028859.82452965
 1256800.31088321 -381399.082775351 -1079345.96780736
 -203472.489671499 1204498.38033374 -1182278.56181201
 -367058.856045693 -1492971.37638874 -725468.307703602
 979521.771463919 -919910.037497225 1041298.52690765
 1680333.73325868 -253968.470778965 -44481.0153115548
 -1569416.26689689 204268.236966023 -620650.520475272
 204488.185126323 -1523275.91942732 -726508.813048120
 -925970.344138206 686166.330667044 1249701.83981440
 -32430.4626228801 762829.204189779 1518894.29201945
 1279914.32658977 -797069.173127550 785175.171436305
 1479495.45073858 -831515.766435790 -98360.2633819026
 464750.040888466 1632800.05852179 -89282.5200440996
 1169777.78193764 -1161491.26292566 -415400.995463906
 -658092.284551903 1457372.05580064 577045.263375993
 -1450483.22441639 -409756.123469231 786255.896617692
 -815586.864287696 -1491539.58773044 -11301.5500828386
 -1259438.77321593 -78882.9462567848 1139118.71958554
 903967.791917169 -333746.893562395 -1400519.63292695
 -1207699.12527706 -808350.406398475 882061.473640271
 1447378.80434486 -668883.158012981 -589652.370180797
 -236327.344541138 139525.104679888 1677701.44286348
 795793.791105713 -1036360.61864779 1087505.82074469
 357205.359753279 -1256030.60225776 -1088481.26173837
 -792401.765348810 1464481.15694338 342628.637492353
 360181.629347969 -917135.824014056 1385327.06397814
 -5372.12406582722 -657675.660029188 -1567620.44720276
 1239615.50684139 272848.746800859 1130887.68521351
 -11320.7297447047 952215.822465977 1408246.02556637
 -113711.637835431 -427827.730885490 1641350.99722946
 -1194590.51438769 -625974.663079164 -1034944.06811087
 185621.042095896 -353317.778990247 1652486.42226816
 1646511.07656414 122773.054536992 404880.293211762
 302492.732354680 1301883.84726767 1050522.05835771
 -16213.3152665256 -1552287.89979096 -692920.922306901
 -764478.809904441 -929068.854175298 -1201000.92148528
 -111212.024392455 -668945.423370182 1558891.88405823
 -368490.669322379 -1428343.55750361 845014.383522720
 -794633.714985559 -105898.435642056 -1499113.99844602
 -706035.523177448 -1456262.25882579 520397.995318162
 171791.294528615 1616659.10590157 496891.423179877
 626221.102281365 1116158.95114841 -1118944.29120882
 1591076.32857492 -593047.039421317 -82288.0652473868
 748687.562818606 -1526259.11539561 -214.365423237411
 232743.083537631 -1335403.97926807 1025927.32160733
 -423612.967820793 -1477305.83461444 -726718.325424771
 783424.338859996 -1260510.33327707 -829071.773119495
 1146598.63782386 1254719.40775036 31476.5238716443
 648145.292537576 -1258021.15518158 941960.961440014
 -385519.476406971 -1579077.70486042 497883.857263578
 -867933.664491361 219513.637758973 -1445166.05166341
 834201.587207278 -1155173.02050294 927190.921333342
 -1049316.67699147 1237432.33914194 -507637.387741773
 -128367.181090777 1373020.98537842 994150.512009773
 1301321.84462127 1079415.63945096 -177266.279986307
 1172603.80162272 356190.586572676 1178188.69051479
 218278.817410612 -1639463.16507068 393083.818347002
 963282.137996682 -1147126.08869955 -803858.979698190
 208659.169778223 1080737.47360829 1295556.97057529
 808565.138950230 1438322.79527051 -409206.491492525
 -1682813.97118033 -94321.7701085855 221902.100224120
 1366606.18487119 -455291.723287119 -902827.216126123
 1409682.14692254 932060.262461334 184553.276287261
 878884.234642859 -360002.147925701 -1409950.69260777
 -209275.564875170 845526.679342408 -1459893.27434110
 1692646.89677021 -63730.8968267555 144515.935605183
 1114511.22790081 -932997.195776055 -881692.097932743
 606903.580717289 906673.553692508 -1303691.34029000
 -988376.690833618 -1283652.81227872 -515118.408276896
 1613982.55444259 -169044.299716249 -506442.828647446
 580168.107610811 1074474.95843294 1182754.63669005
 -825621.811271605 1012735.43640737 1087527.26889829
 474868.351229848 335467.719777401 1597485.98052928
 -490695.533053230 -1582945.39390003 378816.279708614
 -1575447.99269594 -82026.4829006899 633431.352565752
 646594.525014834 -1149365.11951453 -1072788.58227713
 1181674.63351696 -1221747.89543090 -31259.2468357669
 -567410.248793480 701735.235650594 1440698.88200502
 469549.922415256 -1633786.67987367 16246.6928077000
 294694.568359522 -1659092.58019644 -224870.900110499
 -1643906.13148554 -147322.113536470 -407269.966640556
 1073501.58226758 1312798.49993284 -118972.481873293
 -942541.258929632 1414756.01418975 -9021.94708966618
 -878571.144278123 -389257.604216063 1402352.04638557
 1339764.28287095 893059.527382878 545413.922534032
 99486.4629239219 -1694370.95008501 -95966.2815935991
 791237.254457005 -1495755.59381205 -163275.260646861
 827053.823625876 523074.898385613 -1390098.78192332
 1206667.26055852 -713590.464386639 961635.467020978
 1603346.73219554 98427.3214753388 -556409.308643428
 778763.877498944 -118274.195805114 -1506498.60196067
 568454.012349570 1146764.76441526 -1118834.48773234
 1118247.31724016 636753.047404008 1110886.35517181
 1009164.26103331 -1095091.64205121 819976.700743786
 -735888.596189256 300688.102847154 -1502682.48103343
 1556558.84742678 -100200.596591775 -676080.169018479
 -1401288.61134084 -711615.999157912 -648068.590095956
 179382.171863422 -1398765.31909456 949356.423328911
 877827.604448863 -209493.339958595 1440670.41247489
 1077513.68970527 -1123030.65144825 683934.503008483
 1166336.89541533 -999973.093064304 727813.203741418
 746711.888459070 -1335662.38176776 740558.814385709
 880519.728774716 -1449526.45808119 116439.059430726
 498082.860236681 579694.762784507 -1518508.29643393
 676484.756040064 -902009.058329715 -1272300.29220171
 37358.8875557150 -397836.704320312 -1652371.10547726
 -1088538.36401663 272142.674170045 -1277114.94978313
 468413.319685450 882122.857045801 -1375662.83188091
 -503998.357954081 446630.998328857 1560931.26258377
 -250286.975009807 1681471.91864325 2935.46497778859
 1388550.85620104 -906896.260452743 -373451.057730733
 -811759.553218045 1487408.55018914 -136609.782166140
 188303.581269613 1681734.66980822 -162204.382326938
 611896.053163227 333246.870031355 1550654.61781068
 -824769.965978649 -744606.421596967 1286590.75860824
 148097.169793231 -1320887.65682233 1059869.34400125
 554222.352527133 1493952.47157413 -592404.926242889
 599301.546989166 -968174.489729950 1262329.51847469
 616539.711255715 -1545428.10655400 -348612.610095574
 -372898.065312906 649476.424442805 -1526147.89813402
 -978856.250587818 -1340099.79933777 368745.126747491
 -1337632.30038913 -744772.515663124 738954.483624334
 -859562.284104507 -1402468.10696301 429227.082902071
 -204462.728535230 1222707.81225319 1163262.91030658
 598626.986545674 -814753.390725135 1366683.08077664
 1282809.07952860 -33854.8628019565 -1115013.32446911
 -237835.719458098 1003876.89056027 -1351171.84663865
 -604516.234381589 -1323191.44905732 879616.115990769
 1261792.37682361 -1070194.37079868 390594.427124405
 1026141.89093137 1298179.20701113 389568.435784704
 -1289534.18002769 881097.159254875 671393.621129439
 475029.759074320 730689.800878516 1459602.39205268
 66937.9402938864 -201731.365791659 -1686660.53733555
 -323490.658671043 622135.399250474 1548645.00088046
 -1486792.46266254 -358027.851442084 742471.703542724
 -77305.0471326758 -101476.807516114 -1695206.88626024
 -1004520.73167361 894694.488881667 1039451.71662886
 -495037.929122173 1597655.21128565 304031.699962736
 817045.140803398 -646432.871914643 -1343339.78575703
 1332843.26152301 -202650.888062243 -1035597.15033419
 -1214338.89682673 1033891.80238854 588599.001534501
 1317093.71029662 936474.460571318 -527522.267771458
 -1362430.89269327 -821830.106995304 -598646.254369903
 -1481838.73403832 710800.077834295 -434646.080914671
 969943.262646036 -701266.761475647 1207242.72476458
 -110731.204073833 -1693485.45499335 99225.0682556346
 372272.100221359 -84070.8641649262 1656606.64407558
 1544430.92492674 -485139.933230944 519010.947201129
 1285875.04997514 515836.757843544 -985108.011899659
 619761.568079750 -1452750.47308087 -628817.669674315
 -1526205.08146039 -705768.881927589 250176.606874365
 1486657.35151470 -249857.678844927 785761.452038418
 393542.045318035 1207848.77336974 -1129701.73020851
 -804518.654246063 -1488820.98673567 -161746.111005884
 1532108.01593353 -81753.4104618755 -732093.851490416
 588267.281508759 1509828.07155397 -514160.286150068
 1168862.71161190 -754145.917599235 977253.240655503
 1125407.55735436 262056.377773435 1246909.89438610
 9082.16000285840 -81949.3087910521 -1697999.35958714
 -109613.033440558 540087.308320552 1608194.85209070
 625820.270198765 834706.963399319 1342241.88381269
 127447.101802485 534180.695664141 1608853.07614522
 853857.270537358 1409214.61110836 -418380.139812131
 -99976.6993012595 1545950.79288848 700029.146224855
 1010356.67646365 770640.655794975 1129288.43346650
 914262.437513200 40371.6660928663 -1432652.89722574
 -872865.157952329 -1314522.37523615 632564.100337958
 1152133.39318440 1167653.12923546 -446290.056012951
 -102865.432822901 1256330.68015316 1140636.63137568
 -66177.5243728083 -219747.092293073 1684438.11126934