# OOMMF OVF 2.0
#
# Segment count: 1
#
# Begin: Segment
# Begin: Header
#
# Title: Oxs_TimeDriver::Magnetization
# Desc: Oxs vector field output
# Desc:  MIF source file: /home/martin/PhD/repos/ubermag/oommfc/docs/ipynb/thetaevolve/drive-1/thetaevolve.mif
# Desc:  Iteration: 764, State id: 1537
# Desc:  Stage: 14, Stage iteration: 50
# Desc:  Stage simulation time: 1e-11 s
# Desc:  Total simulation time: 1.5e-10 s
# meshunit: m
# meshtype: rectangular
# xbase: 5.0000000000000003e-10
# ybase: 5.0000000000000003e-10
# zbase: 5.0000000000000003e-10
# xnodes: 100
# ynodes: 100
# znodes: 1
# xstepsize: 1.0000000000000001e-09
# ystepsize: 1.0000000000000001e-09
# zstepsize: 1.0000000000000001e-09
# xmin: 0
# ymin: 0
# zmin: 0
# xmax: 1.0000000000000001e-07
# ymax: 1.0000000000000001e-07
# zmax: 1.0000000000000001e-09
# valuedim: 3
# valuelabels: Magnetization_x Magnetization_y Magnetization_z
# valueunits: A/m A/m A/m
#
# End: Header
#
# Begin: Data Text
 -121775.352636238 1188304.78914779 -1209587.73620550
 -1080239.43175638 -1157105.46871276 -619830.383535429
 840605.544068606 834233.621130876 1219605.09373157
 398531.445830647 1374222.19948279 917979.320645519
 1155624.82229297 1243739.49047160 87426.2543049036
 -950648.756418809 1209917.05493649 -722750.068898773
 -641053.028803549 -276767.979894750 1549984.03203606
 1079228.89566812 131466.702805826 1306897.66118404
 226136.264232833 -1532535.58337020 -700140.754208018
 910743.952812565 1186594.10131021 -807799.412695472
 -1063856.39438071 1183310.59367696 598318.987687304
 551946.610137149 -1438548.74008398 718284.387941782
 729951.813735171 -1533979.42277739 63855.1495204101
 -230234.138892721 -1199650.80213133 -1182298.69078587
 117682.470291389 1063153.70763480 -1321308.07540425
 549621.920323409 1448859.38376243 -699086.711920317
 553517.808774492 1377744.35494114 827912.149806552
 1032142.16104032 -989797.484773145 -919229.839887599
 946112.528395613 -1404146.72798828 -152456.714816619
 4275.48824047800 1509803.90512635 781328.284567717
 -617253.890846856 1580847.55756559 99592.3389289441
 1629115.03803058 -395666.340230050 281837.435539669
 962202.693031671 -1231139.18015850 -669673.276009464
 -1394257.61204469 84975.7660712692 -968929.734519512
 1484500.19319239 270048.057769924 783155.937796832
 -1548003.06766963 -123832.273571759 691630.009837232
 -1494816.93904910 759107.247237836 281564.390367229
 1663689.06102386 -79827.8908826035 340244.347589783
 158374.350609606 -575425.988983609 1591792.22773301
 -453756.284612655 130970.145595578 1633080.54153406
 87174.0009852155 430359.385033225 -1642312.84877944
 515899.050228579 222327.442873007 1604499.51016471
 1109849.20466360 713253.428585357 -1072149.37836050
 454300.081877115 1331174.67827153 -954769.821231874
 -838167.083425048 -86220.6403972528 1476496.50911617
 -735905.446381927 59347.5123585330 1531313.50374842
 -187358.079517881 -1354472.33327839 1010099.82101907
 1566772.78805055 -633874.404397789 182828.526422062
 -56303.3920203714 1344482.62885489 -1038843.77495100
 -24191.3552571938 1695678.15694979 -118702.849056715
 385589.491545096 -1543766.81512498 -598418.552961768
 958002.559161984 944323.361071630 1039463.55702038
 1573515.77625759 625552.279084839 -150772.835750469
 1114325.03648048 -1251484.63110895 -286471.518952383
 1615081.00795727 399052.684916438 -349671.692301094
 -282122.192289208 -1652532.96400118 282031.685289777
 1607026.77301683 479621.518070497 -278259.142187370
 -60664.9549992716 1579176.18735914 -626516.027339122
 -820965.933417026 -1475337.62090562 198478.816273293
 586173.207862671 -385723.076618746 -1548424.57954779
 -948028.129289957 -738448.966225934 -1202470.70249334
 -1302511.15967791 423567.090096659 -1007003.27660915
 885129.185288306 1090302.21512906 958012.215493896
 523828.340903858 992585.812374003 -1276862.27696637
 263668.804413005 1047961.80630793 1312347.06312745
 1631469.29139370 455916.856088064 142995.704740042
 555845.520584397 -18534.1620304583 -1606453.31151705
 -835845.752154878 -1450273.98865844 -296761.244817092
 -1372822.12952318 473418.706473659 -883874.498473763
 398691.612475311 112599.454335432 1648746.90629739
 738381.588649620 558998.381556962 -1425592.31162347
 -6528.65555230766 1680621.46211541 -255868.868238684
 1267715.28951193 -541450.156264817 994851.583412566
 -871489.529638971 -530627.069121615 1359757.66710287
 -1383223.11931034 514835.836088925 843586.310986599
 -7330.80648040945 220107.130971605 -1685674.67506984
 -354100.582926098 -1502130.94747948 712892.273626097
 722206.003872070 -1192745.97114801 -972509.915775327
 400644.489311100 1585188.70962818 -465468.310470196
 -147953.725620687 -1692562.14578320 57819.3543438055
 -1428591.42977157 -864013.717090986 -320322.998646429
 1673084.90663074 -270116.237111829 133506.979791167
 1071438.31469523 940281.314738039 -926224.047926606
 556259.520506805 1518777.04518981 523346.570496107
 -771748.317607205 -1333758.66857693 -717977.958064413
 1531502.75118747 -621869.876571853 397211.756771769
 -729177.762377541 1481448.76282109 -404486.531283733
 -235302.984172589 -612834.062309348 -1568141.23015527
 -258535.948624208 -940234.110953018 1392522.52400791
 -132499.697848534 -1221196.98094548 -1175211.36983936
 179284.604576033 1269374.90735119 -1116487.51679056
 -1305218.62485349 -1083502.30953431 -111476.843197918
 1383582.19460576 984301.033452773 -82775.5175985586
 -887830.895796585 -1426152.51541386 -260471.309836119
 109491.962239353 -1615778.03607202 516984.379214903
 -1169290.03229588 13167.0676650335 1233931.70341903
 445646.238867795 -1639474.22477898 59360.7283341017
 1260832.49218379 -507083.432673992 -1021355.87282846
 -7802.76285642712 -1613113.74247806 536472.898402370
 -53694.7256422942 -1250944.12509543 1149893.76567031
 1051175.24576250 -1286844.78797464 359250.740233978
 1339452.31378803 1045732.34954328 -48076.5244850943
 1282788.81572326 370270.952530724 1052308.07084585
 -1119043.87378792 -261029.000249437 -1252838.64466519
 -597174.889702104 -1450213.47057291 655944.388556042
 1033181.69353273 -1201836.14485863 614919.075212490
 -1376999.65442260 -880062.375820581 -468361.149525739
 313756.198352871 1563421.74421669 589295.764201290
 -963038.205634599 -1309098.26143836 498817.758692651
 131019.224596226 -1666090.07117614 -311412.648289187
 -411088.688312005 1123132.92649313 1208130.17500967
 -809464.131621362 -360675.688557646 -1450751.82829523
 -338435.750430298 -916232.123316600 -1391394.96155241
 -571733.594840310 -987366.173649432 1260249.47358206
 -1641196.56351548 -418561.401436707 -145877.322200246
 577103.785932248 1544131.46432647 -415462.683209506
 21600.6425689134 -1695037.46345272 -127989.881367196
 1292650.48516791 -480007.844373615 994307.393382436
 -1571404.65038879 256490.404333105 -595734.921942240
 -525806.928397416 -1590933.83406451 287152.589537493
 1632431.42733286 -407818.670566913 -242593.419104958
 1268733.54269971 -752725.556709991 844819.172311013
 -111570.573130996 1695998.22714590 33793.7971997697
 -886897.778356690 -709666.121999291 -1264826.59919550
 1235439.82209915 -447110.958648599 -1078786.46479641
 -1341901.02322195 1006931.64249368 274572.961561868
 -471198.643522633 -485606.452830882 1559537.81977592
 -778557.715849969 651742.373004312 1363480.75245718
 -466896.054955246 1564125.95142027 -474887.441359369
 -569327.604934390 -1327041.26745330 897121.815995804
 1060145.24539939 1316450.71058760 181795.448926694
 920583.648769250 -900882.435861846 1109475.81423586
 -1216321.82220142 -342901.489847783 1137092.69327385
 930718.944212857 343109.704762399 -1380593.34250936
 -1241771.24705547 775721.764645485 863863.365261887
 975115.432897477 -987820.177005056 981509.648667228
 1245608.27291595 351496.958626787 -1102229.52170565
 -599941.273812946 1590373.71785516 27962.5737595652
 -885673.899353259 -328203.023618625 -1413458.35428285
 914158.733133441 -108674.383119545 -1429161.88344409
 -1414772.93696080 828002.970679857 -450364.982418314
 -584589.673556772 386930.528056562 -1548721.95052200
 -1016798.14640641 219223.732071928 1344642.14003613
 1215575.21735634 -1099399.99052517 -451327.543788705
 729301.060130740 1534559.21280134 56991.1054349253
 -9255.55851368184 -310068.212022872 1671458.05766389
 758604.526742934 537410.538356850 1423274.07243585
 829051.516401403 -105859.145745139 -1480360.57243316
 1391419.87286123 -562213.033610874 -798665.914037212
 195413.683094957 1536894.30627191 -699835.254762318
 -526157.255302866 -1422614.24568954 -767676.527355985
 1500328.88247423 762547.409305516 -239863.905110941
 486271.456962883 -992824.416814817 1291448.70107934
 1527105.37245645 720662.273868307 196456.276147132
 1605944.58759960 342844.455002275 439772.283385086
 -1381485.35485869 -89865.8986273308 986621.677531393
 465113.335163051 -1241233.06874225 -1064429.45022871
 1473926.60484074 -665443.334996429 -524142.663262100
 981206.683167262 633709.652828306 -1235170.23961077
 1095441.78438398 -381541.829148852 1242752.23984324
 749253.063045904 -1512834.85541631 -199876.331149657
 103317.385963831 -992335.010224142 1376443.51327654
 1024097.70248703 -129480.564430887 1350725.24193318
 1483105.80123357 -293614.670840540 777295.058143650
 1694330.39130547 -134577.545896689 -33666.1438108579
 1005058.12897881 1036603.82967243 897391.028304863
 1395690.77532970 -770491.296824939 590246.068327960
 -1428490.54553794 842475.968158512 373696.406704817
 -339284.783700905 -1589873.44500586 -497180.313783884
 2096.00842091366 350669.080331221 1663438.24738051
 1186845.89955564 1108406.52477501 502823.812626389
 152531.636802260 -1652592.06441126 368338.931446758
 318334.526737795 1397117.45944404 914727.245468974
 237768.555837561 806644.209958830 -1477427.23421318
 -672648.047374189 321157.233626104 1527875.20290543
 1579672.61805024 609870.092237554 150641.595771073
 -1338110.62244371 156602.820239889 1036790.97160238
 -1235981.65255140 1135825.03542413 268795.170083263
 803510.065395383 -1495078.80169580 95451.3044864064
 1476654.83845926 393044.902889362 -744987.377320947
 1128802.60569316 512990.829888588 1163032.71055915
 1156186.94447507 415937.496775252 1174830.94452000
 -1440407.22803595 -70807.7565048266 900118.480557175
 1325529.51933920 -355851.037303554 -1003165.75530187
 937533.128495030 -468845.316021713 -1338363.06831100
 -500926.071725582 1093191.53990353 1201667.72768054
 1056363.86507160 -562812.846251573 -1207202.17224175
 1430062.57991413 642421.442612389 -657431.142859197
 -746993.164984538 -1397982.66358276 614528.830721914
 516463.061145862 129420.678089213 1614470.87138628
 1260747.75042080 838458.739202591 772982.569314278
 476425.225088673 -1476543.52565738 694865.614157493
 -1314512.50376287 199886.875016449 -1059293.21467062
 587761.840341381 -1478215.66111012 599511.866677613
 213802.669684371 -1654312.15448657 -327932.483834444
 938820.920493734 1407705.98048366 -164253.315807773
 489089.058640201 -1155207.07316992 1147296.17397455
 1125707.23504834 1220835.95834847 363789.477257370
 366381.998031443 1653534.59580364 146927.097565389
 -1678234.27410429 13003.3998729858 270851.680469956
 338395.538208697 -64215.2042643360 1664741.68184188
 -1444166.67867296 -557474.245617787 702570.330773779
 -91104.8403726906 -904257.142726481 1436669.38712037
 59590.3043316775 -1518792.56536053 761392.237309544
 -1515542.36280777 586217.355357372 499480.288713043
 1425835.17602594 500483.127347694 -778787.962186983
 624420.971878894 1308604.72269898 -887497.678649211
 -1451558.22227627 -592929.348127177 -656820.763581386
 1619618.34493176 340238.636993312 388682.501094961
 861024.436870796 -325919.071132155 -1429130.39229585
 1529416.90087245 -351384.648838352 653768.133122479
 -1374340.41666044 -688459.437261022 -726093.673281791
 689180.671801804 1530582.57976303 -268973.917212754
 1357468.63139677 748218.636270506 -698174.610761001
 -169397.597805993 527594.838509174 -1607155.29437452
 774719.632975988 -265103.867626423 1489808.52113655
 259742.955906010 133180.474073040 -1674752.68567717
 857284.488090018 338660.886593904 1428415.94445444
 -561124.827469088 -149114.145033331 -1597780.92983637
 -575800.250831764 -1063150.27571122 1195058.81127133
 -1609956.39287883 -505628.890234419 205863.640278929
 -896341.236582832 -775320.096533893 1218790.84978180
 29426.9827178357 -1637998.88203877 453975.456525878
 1068073.89768567 95792.5052164066 1319106.49495290
 -327535.289759021 -1642083.93586418 -293736.244851176
 1545265.25744938 685587.596198685 179234.293756585
 -1512678.43686862 161537.076945347 758755.375206428
 -1102732.32186860 594501.847640865 1149151.41711521
 -1091986.35541812 -1297991.40939345 113066.797608568
 -1338854.44037794 1031884.61225924 -180784.220724214
 -503710.278060545 1465383.01930978 699234.268678767
 1452031.53099927 -737352.128119752 487766.616468565
 -629773.584586137 -890698.083845275 -1303856.64687184
 -92466.8423358310 -895528.233536279 1442039.89750902
 -1142339.86456106 340781.283178996 1211993.29654479
 -1646508.74085115 -197310.816871531 -374269.164968557
 -1266988.66745509 -728507.501485968 868341.255969700
 878431.657940687 -1374222.82164348 -479447.034407138
 864453.393325656 1349734.61097913 566512.851304172
 462039.481352636 -1475510.32413549 -706674.466102307
 -4190.91060402834 1656413.03890241 -382463.437236011
 -1088974.66635994 1302875.76854694 -81540.8349201597
 76292.9665872429 1591936.49506156 591538.315699352
 -977642.332758162 1083618.45512273 871772.053300987
 367974.838345500 -840318.238899401 1431244.13560986
 1608572.62845625 -84617.9615773638 543446.317091051
 1516334.44999045 497670.810889135 585707.776763391
 56900.4424599547 1320985.91734487 -1068531.02239682
 1455903.87725887 -859558.377118917 177491.680107231
 -641706.223362956 -1476503.39282949 -546031.916521594
 663397.940463865 -43024.5730186337 -1564625.21349519
 1664898.60157728 -327406.209298879 104488.375327328
 -248568.191193450 -868315.958520193 1440222.63921450
 939315.439527026 626742.754015169 1270779.29844471
 -1106307.19979808 1023001.70692572 -787116.184118953
 828203.583365214 -1400698.27175753 -492060.134532844
 -1007792.93053840 -800928.516798787 1110345.40577935
 -235211.183798627 992562.999591112 -1359961.17255558
 -1201939.73769770 1147548.62930081 -358431.318850672
 1196333.57123361 796853.976357879 907639.645840829
 -1677687.05656567 -221117.938266179 162705.247637972
 1188942.97751915 -772809.014485127 937646.427678588
 706921.718724225 -1416256.15495883 620064.663674060
 182820.459884663 -529145.020703955 -1605173.58142718
 -1180575.74094537 568964.220515052 -1082829.92000821
 356733.929441339 -669035.034486185 -1521556.11996910
 -605235.495484716 -258403.490208672 -1567455.78287024
 -1547026.83660668 393375.235310814 -584776.787383770
 148499.083514029 -1662929.41833910 -320333.844321636
 42792.1623091357 1631199.37875659 -476820.110302640
 -978100.352819861 938473.225233485 1025956.97050779
 1616522.18585016 -508419.730796837 -135519.002323268
 626265.675017782 -1579977.84200645 38227.2555013495
 -1415226.64798788 941620.945042016 21989.3311216818
 -256277.987481028 -507977.660706625 -1601961.38822248
 476094.821256103 1556645.78493576 -490089.401451267
 -896354.317298111 1440572.10706255 -106305.889838654
 -1552125.09411875 -276479.417686939 -635977.062324076
 330302.312567983 335154.811448887 1633576.33267469
 148212.441615737 766310.866354757 1510232.01139988
 891948.470685915 925200.786492833 1112848.34111127
 -776118.861247366 -629157.779088807 -1375427.20717170
 702247.632272170 1490016.31789300 -420356.557437514
 944142.483068889 252126.307105747 1391052.58596853
 1553895.80718071 365016.493262104 -584953.656346253
 -182045.124646819 1612721.82642058 -505952.451500143
 178450.402000306 1686321.59147342 120311.862077201
 -56853.7913560368 1694682.62231001 121731.080866492
 815275.560255558 -1483273.44328872 -158825.858361929
 -1646817.47499712 -418676.513641555 -51982.5063755025
 54720.1127242268 -1454605.41906570 878139.387619161
 -522392.543353048 -528946.097149125 -1528830.29043771
 -1042841.43475864 476508.540303278 -1255157.89961605
 1628642.98522913 -297403.715886002 386099.801141049
 -294993.132575417 -675724.699351319 -1531788.23027856
 -148909.243448480 246350.443095835 -1675451.43063059
 -222649.025242217 -524445.919665060 1601681.58162144
 -808199.438813885 725382.663573799 1307911.94599923
 -197224.374217002 -1362535.20063590 -997296.532252466
 1092930.49581114 1290784.44225368 171401.443873380
 1339072.79565929 -1045000.13076856 69704.9110099533
 28918.6408896691 1497374.15552608 -804384.454456737
 -1603238.91726401 -505393.074015852 253382.743901267
 -973831.177208948 1134303.07151465 809326.497927914
 -93574.9851544530 -155862.493409624 1690251.63963875
 1329626.83306162 -475335.130395755 -946651.466282166
 -420771.012044448 -1388562.03339980 885916.042762345
 511951.984052796 -1615787.65305617 -130902.353896431
 1300244.56394428 1001831.76634055 442376.746545655
 -1338041.23770145 997212.641099820 -324364.909694462
 346464.534942147 -1247682.33723451 -1101476.78658261
 57450.1660428916 413274.685093442 -1647999.85227019
 751576.553532012 -746191.127131385 -1329786.25574614
 -1197864.66748575 1114687.80817405 461076.272104075
 424190.283894117 -58199.7230755833 1645197.67665887
 1234016.89161030 831627.432059505 -821947.763222563
 -88568.8774729268 -1472789.56294040 -844420.782096816
 772443.189040739 -101982.194233513 1510937.17664365
 -1546751.35963013 393519.448866716 585408.126733797
 1448055.42674079 -386535.571268395 802325.204160243
 1436804.38725199 131533.704729788 -899050.631106773
 1554842.51726909 546102.349293717 417417.022398714
 1560722.47844605 462750.854536308 489905.084581825
 11445.9158307776 1652781.52082569 -397721.303713924
 166721.149072675 63261.8694988713 -1690621.77742965
 -45550.0658681199 1694681.81839418 126406.985185217
 -1099408.21506879 -1292154.08472106 -107886.041626995
 57654.1927069786 1626056.33852714 -492561.445912086
 421241.072602572 1627528.99275467 -252399.161043787
 -662377.969238052 -1519392.57892646 -377758.675573820
 489682.989949286 -832737.229789835 -1398842.11956757
 1041728.79584241 339490.269560330 1299825.93941904
 1666035.26259284 337504.102342365 -20432.4423229083
 -452467.355495574 -293883.305505541 -1612112.24638856
 -961802.887704985 -1175698.68983623 -763326.794970361
 -937460.517760479 1393831.03105982 261539.355537524
 650687.564794196 695113.481275700 1408340.49191628
 1211493.57874143 1175052.77145624 203799.639257023
 -1029138.83522405 -1178424.08186683 -664973.639409864
 1061013.50557551 14223.6719376602 1328174.69790046
 496937.293250032 735360.585347940 1449930.39008570
 541788.358710548 75617.8205522774 -1609579.85809361
 -194092.963150312 71543.8969590286 -1687367.59257236
 250594.625065032 -1681278.67718754 22457.5938835530
 881200.562957434 -902071.177167043 -1140067.17309462
 1353678.50315911 -44235.5601128389 1027422.85613394
 -341318.758896130 1368257.43003613 949406.714731120
 1553227.30751713 -616954.523192713 311210.615974356
 -1616788.45688340 -224790.376893235 -474830.887943067
 930239.537241827 -710587.565091029 -1232769.12505550
 -962771.842423197 -29900.9694324004 -1400777.03845546
 -712244.781412299 -1153442.65929870 -1025805.73358745
 -1596751.69709141 369269.109598671 451690.538457359
 1132985.14729441 -771361.388906053 -1005657.13029600
 1388892.32880245 474471.664428792 -857819.758835078
 -1616242.06444092 519743.916246486 87337.5672693006
 934191.158164244 -658302.596291033 -1258540.65159781
 688200.471291629 -1523378.84215856 309349.340677537
 86067.0751691411 1369954.65057796 -1002904.13995140
 -975085.603710394 656281.424394184 1228211.20229050
 870874.278126578 -657634.578485537 1303493.28838996
 -151280.407484564 533229.968039156 -1607102.99592038
 387408.412483937 -1309088.11950918 -1013016.79023430
 -967041.261500855 1137542.91267090 -812912.861496877
 -106877.213807467 1058977.02155242 -1325573.43402496
 -35266.4961845784 1647086.28613738 -419360.275020229
 -1553839.08536474 666441.718185033 -177311.965347633
 994987.930212454 316812.016232188 -1341502.57737450
 -113560.103311672 274064.817497074 -1673915.34396042
 -1070185.01690108 -309716.848700805 -1284048.09225795
 896665.681443827 1407022.61986092 326003.071949623
 645977.267917193 658779.912679620 -1427838.36479626
 -188353.401427710 -1085930.65526577 -1294325.15548632
 -493009.652918378 830052.818793952 1399269.02350531
 1131577.74125409 -1268642.89956722 8775.47012779773
 885799.282349087 -1056692.02834224 -994364.917235017
 -737611.864249374 -406901.513262548 -1476604.17723343
 447580.030689136 -1552095.37540773 529784.920289594
 -1414048.07897164 -508859.817553565 -794688.439852986
 347271.686952123 1412724.77540041 879551.638285830
 -306581.523766696 -553795.237372906 -1577757.46055849
 -486670.178330574 -1474404.18922404 692303.708152933
 -259812.954230070 472298.200422841 -1612275.29866695
 -1601004.63520634 -65372.7911632155 567900.128740397
 447899.083589687 -1591963.01984578 -393751.386490274
 -833570.373529523 644963.371634237 -1333860.06823206
 106881.824978889 -1696182.05442311 39277.3947989312
 421536.405914461 -52649.1203053224 1646066.56263342
 1166461.09009923 -874279.196136606 -874645.306674227
 -457767.937083030 1290601.09360770 -1007371.49699470
 1115069.04749455 -1265547.35764727 -212157.735827881
 -1501825.35033826 -99298.5938953277 790354.607965163
 -34143.4647940433 505527.418211674 1622737.27178743
 1155545.97928003 -177241.882839702 1234219.91749331
 1402015.39084173 955833.415495161 103611.416676792
 -993567.178950321 1307286.29474624 -440257.656925285
 1281785.22455346 -182971.379535382 -1101611.59779087
 -1430689.20761037 912133.427682125 -105550.941881498
 -1150060.54553616 -965277.199291090 797245.677398019
 848811.110053448 -1457242.52352822 -214391.993952494
 -953965.271496834 202656.972962991 1392436.86107753
 -305451.010892617 -909661.904447827 -1403287.17643290
 -197583.221830669 -319165.190390875 1658039.33960982
 -53459.8099999731 -200180.511004008 -1687326.23156547
 -535401.367682526 621822.480169850 1488852.63832224
 399261.972465463 -1644211.14427712 164801.669827470
 -154321.919170335 148952.574951209 -1686415.68887359
 -659903.148447151 1338462.36291041 814276.573248804
 844492.733349624 -1251630.80110296 781186.508492080
 604459.454484606 -1137330.44711126 -1109553.16319583
 1017842.81417237 1172798.06723867 691766.361656087
 97012.5143778362 1249304.48075116 1148837.18882580
 1242293.89380813 -819179.061342055 821980.259413689
 -367654.485509108 -1537286.69903369 625763.361231001
 209217.476363610 -382443.931426699 1643156.92704590
 1095323.93120189 265036.764950144 1272800.45528009
 -99597.8144578501 27595.6102842316 1696855.55002430
 460471.445110450 -1310921.22195975 -979516.001938428
 -480387.269420324 -458352.096957561 -1564973.29900337
 -153905.393411122 -108425.494682486 1689543.44187471
 1650822.52800713 57594.9600357324 -401830.563300802
 -1482696.01085697 -256814.142606100 -790986.115899839
 1497742.64101384 -741835.657914978 310558.912180498
 249877.102527635 1469160.33711152 818003.262518407
 877790.982634832 879405.516738048 -1160227.96377939
 1529505.01639400 -609018.308809551 -423923.465215525
 -546038.503117863 -1494483.19925426 598633.377167989
 -962604.429366249 -885583.434766272 1085879.68607579
 -1287246.50630025 -61279.6891082826 -1108711.51871016
 -560605.150443728 -165083.237482692 -1596392.61774734
 652712.708113168 1306973.42806784 -869359.867369190
 -77885.7646834916 -1338113.40911161 1045651.14259746
 -1007130.42135598 -1074423.48262035 -849295.292800607
 -1023711.23848124 675470.913395469 -1177180.67660147
 -218879.996906578 -1459491.63896756 843786.526757777
 -751317.698688480 942403.710873622 1198914.90997863
 1439808.95333998 298910.893522778 852996.163892574
 -16490.7008563455 1616893.94325933 -524768.551874581
 -530030.076810054 374506.267521913 1571245.73929845
 1344635.43506042 -1037638.52945471 72538.4654576928
 1169565.30229245 1040713.26295381 -662595.584037200
 -244763.135398548 1062903.16286539 1303966.20888757
 209780.466714068 945085.993923084 1397427.85855859
 -1351536.11129488 549708.887910017 872450.731227074
 -311105.610579264 267757.635612280 -1649702.74523546
 986928.823849267 869917.558116706 -1076668.44419987
 727016.975033711 -627593.687990757 -1402701.85029000
 617511.447243822 1439320.47659786 -661087.118441240
 1152396.65836893 -834298.898760896 930552.142174995
 1440038.62821165 -651568.575448784 -625897.068810809
 -960764.402295810 -119513.455448016 -1397371.92516812
 -797864.382436775 -1422484.63299658 479530.912587877
 1191347.43760308 1157091.02028328 363086.289601204
 100262.820752138 1693828.74529077 -104362.581424182
 -806209.378723450 -911487.266801962 1187104.62896757
 596920.690261189 987677.010442794 1248270.72888092
 -68362.8591369784 -1674348.14209315 286155.235073288
 -677811.983164007 9936.00415852212 -1558997.17488539
 1053270.38087282 -1331884.11132281 81891.5061643068
 143375.629861593 -1536604.70922463 -712944.174778416
 -647879.187274715 785695.362656311 1361225.68143443
 796902.233623001 -1133789.69665157 984615.536041049
 1069326.93159837 -417160.989811648 1254000.24798155
 -1098066.54832692 -772554.676823481 -1042789.10943851
 1427649.91627297 619053.575652102 684535.161286925
 -316340.207334245 1288204.03673215 -1063230.56435127
 -1264489.04680043 -428753.336411113 1052253.78452067
 1680040.79809807 -48409.4056548042 255185.121372960
 -1475828.01624661 -199250.501172385 819896.886348619
 1585436.36592584 -498672.792205061 -357375.119327422
 1121826.43205238 -374579.018151568 -1221145.37034263
 810906.987379049 -1210189.38825686 876282.775347280
 754533.516940815 -1164845.56808533 -981740.278446847
 -592001.551504516 330426.526814327 -1558958.77860631
 1024157.72103403 1348751.09848874 148227.651846028
 1335686.19791793 623007.378957119 847233.253866099
 946825.884614306 -1290242.01953038 573407.599585593
 -363938.674787846 794727.252063688 -1458066.26592243
 1619146.98846809 -461827.797227465 234687.271582318
 -1285594.36517244 247799.107931781 -1084362.82228094
 -486349.026978167 -1551476.02380887 -496373.620878069
 470040.024155534 -1519111.92943026 601133.364200102
 1445290.93315464 -501320.691618678 741492.874339300
 446485.528395334 -1329680.16197954 960521.389544031
 1621775.88231537 -491774.988530846 134165.376292480
 228769.634239287 -1677419.38087534 154688.962482151
 1645775.29608578 421881.966696285 58645.3831963414
 902524.216772307 -426480.127555607 -1376068.58075449
 1179555.66573915 -205579.312935558 -1206808.01187082
 -1668530.58338127 241124.999467596 -218779.402488215
 1057157.38966585 1180342.45126340 615800.252695945
 -910168.775396819 681479.576581423 1263795.23143390
 -75628.1691204479 1234693.66043658 -1166109.74822836
 49030.5303149085 -1057947.19712110 -1329790.86145177
 331240.396114441 1489004.71421587 -750429.717578450
 153670.361215943 463325.390638987 -1628408.73323407
 505462.394737392 -142017.068945745 1616891.74641792
 -370960.489945682 -209990.586893655 1645688.99501556
 -24504.2504183002 -1698053.01158645 -77559.7289424599
 749189.445695281 1359878.96770584 -692419.213807721
 694924.326235667 -866684.197971147 1286832.81034990
 1235642.81670437 737407.662416123 -905216.421049069
 280446.129941524 1440389.01457263 -858271.201252439
 -780126.389122054 -1351410.88617479 674604.649942211
 751286.701042893 -1312887.98663843 -775817.908646458
 -1352717.13435396 -276292.986300250 -991876.272599817
 491787.516530564 1475326.82021663 686699.215183897
 -273139.484309905 -1203164.38897743 1169525.66248350
 1391055.40168665 962603.603314350 -168401.818056173
 -1444438.78166848 894515.483192639 58640.0574754840
 -1095250.12676930 -1020875.83639751 805133.334592177
 1069141.79180249 -987440.807907163 -878576.393890146
 1365796.51685254 124030.196925013 1004597.62333196
 -1418905.01065437 906619.526169212 233986.336157988
 290718.018027068 1042116.92488285 1311287.66823574
 -1067027.35645948 -516168.978953973 -1218614.87178383
 -584588.271963989 1145885.88398648 1111396.46083775
 -277104.216912787 515655.933375924 1596030.14111368
 1068793.04271150 456330.788516221 -1240743.18184855
 -1307592.77496736 142695.251969058 1076958.30927602
 -423637.327964678 1646342.94691996 9290.61256591682
 983841.675917965 -1384552.49024399 -71203.6409608621
 589212.446710857 -979117.997900609 -1258632.84512526
 -907309.700440833 1356336.99116125 -476591.097161520
 926712.456172892 1199782.65313051 -769237.030323635
 -1630025.50521603 -297512.124150829 380136.012932842
 -1398313.32733783 -333894.979876998 -907322.423949916
 -501503.809130422 982058.006476426 1293853.16065743
 382889.299825188 -1086269.04433097 1250366.08535567
 765432.850662584 669370.702727681 1362371.24656108
 1559754.21774830 493576.472024694 462113.672682431
 719260.036336752 284115.868109249 -1513916.50153414
 1252078.98234605 -1143434.98339897 121879.697680484
 -38970.5942041041 -1686111.25971067 -213330.993210759
 615333.333966983 -456836.112011080 1517453.67470367
 -311699.159845543 749112.542940769 -1493878.85444583
 -953986.162468666 -1273593.77219574 -598221.785997908
 1584225.44825248 -596158.407788814 157559.137887773
 816327.972536230 1432209.08832186 415193.651906136
 1370793.40649658 -889013.955566687 -469659.050283482
 205225.588705715 179682.161693590 1677974.01008166
 740781.941179982 -880966.820158357 -1251055.38542532
 -1171360.44851715 108614.556108310 1227239.82083825
 704831.656824571 75764.0706021440 1545144.69909576
 1520358.27628947 -181687.031419022 738580.079837147
 751879.176128729 1523009.70011910 -71548.2903157190
 -835156.663069427 1194629.72767324 -874856.080672761
 1126937.58955413 941094.314270187 856944.082713836
 875597.546389078 515261.672672070 -1363023.97096772
 -1395197.19801818 -808710.117775699 537970.932346197
 642701.931856665 1542751.79329613 -311209.143614547
 264560.946515540 1676078.49762134 -103770.782931360
 -538222.239538343 98743.8634801025 1609523.67807726