# OOMMF OVF 2.0
#
# Segment count: 1
#
# Begin: Segment
# Begin: Header
#
# Title: Oxs_TimeDriver::Magnetization
# Desc: Oxs vector field output
# Desc:  MIF source file: /home/martin/PhD/repos/ubermag/oommfc/docs/ipynb/thetaevolve/drive-1/thetaevolve.mif
# Desc:  Iteration: 968, State id: 1945
# Desc:  Stage: 18, Stage iteration: 50
# Desc:  Stage simulation time: 1e-11 s
# Desc:  Total simulation time: 1.9e-10 s
# meshunit: m
# meshtype: rectangular
# xbase: 5.0000000000000003e-10
# ybase: 5.0000000000000003e-10
# zbase: 5.0000000000000003e-10
# xnodes: 100
# ynodes: 100
# znodes: 1
# xstepsize: 1.0000000000000001e-09
# ystepsize: 1.0000000000000001e-09
# zstepsize: 1.0000000000000001e-09
# xmin: 0
# ymin: 0
# zmin: 0
# xmax: 1.0000000000000001e-07
# ymax: 1.0000000000000001e-07
# zmax: 1.0000000000000001e-09
# valuedim: 3
# valuelabels: Magnetization_x Magnetization_y Magnetization_z
# valueunits: A/m A/m A/m
#
# End: Header
#
# Begin: Data Text
 -374124.745918882 1456784.38048760 -792344.586186146
 -1550173.97037775 486628.311983342 500153.523969921
 1086029.07671333 518443.796541226 1200731.80784099
 -863322.800363785 1077949.68094611 991311.367694430
 188971.815493630 419005.772508176 -1636680.73109995
 -574800.471710200 666569.825390985 1454403.34350550
 489185.612998692 827908.615522408 1401879.01060643
 753253.227403958 -10903.7853433451 1523972.00855879
 1287647.12366682 496041.655379571 992928.779440327
 -1125509.08321873 1195385.23637304 440775.952444663
 -470855.346560160 1605581.12864708 300673.380843870
 1051472.63227314 -1191620.71029127 -603693.122691916
 1231307.54403236 -328689.007538268 -1125097.89277756
 941525.787061948 -1181867.10036321 -778921.914813317
 139233.967924227 1473297.80209974 -836664.501759306
 1052981.56592472 1066644.95104099 -802183.501601398
 -724814.491657260 1426884.83214790 573274.479171972
 1152978.68082331 -28913.9694386185 -1248921.19204466
 380853.109370846 1652930.06319720 113018.207654584
 -1392522.13523170 327960.928476590 918326.593474519
 1696257.10182001 69225.7281569467 -88992.3765628586
 40949.7713086239 1520741.88385735 -758727.381153307
 1660609.79861619 10626.0929422599 -363678.680827825
 -1083718.39414074 1199560.92577624 525935.383437790
 -438183.744681405 -1612708.09541041 -311717.187358502
 683822.341481198 414942.237648305 1500069.97993647
 -1513812.66992966 -551702.095500870 -542213.978222962
 1042283.94904967 -1341729.91127209 -58352.5042411987
 718611.755331481 -1269408.57992998 873040.092034471
 -758862.777216073 -626258.328423583 1386336.10334435
 -517147.753670979 904471.320840973 -1343313.00546419
 755150.204535529 -660767.703382808 -1372273.37318632
 -518901.634624925 1618822.69744249 12416.4338115272
 -544204.086896439 932956.311966580 1312796.41672535
 -1661190.67839240 -4519.62562912995 361144.158206053
 -57398.9654519136 -587581.542934378 1594193.61721464
 804162.492033295 -795941.902203682 -1268778.61533176
 184039.792490900 -327022.699718313 1658066.79860881
 374946.223172121 -235586.802843803 -1641314.77421450
 800018.935503449 1007292.68923476 -1111454.51596101
 16762.1430174887 -1437038.08109791 908097.232699174
 933698.984922499 812711.676171006 1165206.39243441
 1563284.97155956 461642.634857630 482727.848148143
 1281478.98944173 -898920.188833141 -663139.573338522
 1461559.75405906 132451.217336026 -858079.110770700
 -1377769.33238821 -974735.577114110 -204064.258111457
 1170194.18564708 -139452.992487542 -1225234.03101777
 -451692.351743946 1523435.32834331 604250.626587623
 -1642580.38011798 426060.939663308 101989.070712006
 1065422.23046991 -497196.929451033 -1227872.42177882
 -1194059.36424661 -924234.373375036 781033.326899077
 -557858.430560564 1093372.33863341 1176150.88341752
 -3320.16733242075 1680484.40254400 256829.027361024
 1244840.92948329 1157253.58998113 33692.5623686685
 -172507.589916857 -208887.656337918 1678275.03063435
 103933.784400991 -132627.869553982 -1691628.68759006
 516119.569581070 1548988.29258641 473556.606252824
 -514780.822606631 -1379336.06141922 849960.431046626
 -1199590.50804096 -909606.037914420 -789683.144563482
 -6660.81558483674 521318.726591693 1618079.85552029
 1292862.41576535 -1022637.09712546 -415596.127850342
 1312737.56109635 986029.803749488 440982.223909925
 1095139.64159954 -1082070.34384986 720966.667993644
 -208873.146870450 -430445.562732238 1631284.34861632
 -1128154.41831662 -1263576.13827186 143676.550705624
 1135291.59773962 -915623.483624311 -873353.665096506
 -1598696.05305910 -162987.782754047 554622.315279660
 -294593.160316503 -594463.274750274 -1565192.73090183
 -1480938.73005238 292497.247005425 -781834.917565781
 65693.8090375929 -1448102.89542210 -888077.883816645
 -402728.843020000 -1228645.15649395 -1103739.35257547
 1534638.48583298 -137159.068009310 718381.589312439
 613702.449345631 1380464.80650991 779542.315499755
 464284.319070687 -753149.858225881 1451621.63187223
 -77494.7899440046 -986414.522952350 1382382.34451986
 -660890.813244559 -388372.859964963 1517362.79597583
 -790240.040102920 1482268.89201350 -261533.192515203
 -1201406.11273581 -1201265.85878173 59863.9190698730
 408641.107663420 77631.6245216488 1648328.17606257
 -1091278.11634662 -169930.343964525 -1292376.00990697
 1576821.48500754 428191.519324294 -469346.382959722
 -1696808.38740389 -21885.7938308869 -101795.424574063
 1142441.94613674 445155.354353589 1177566.60541883
 559344.250994532 -818702.833984111 1380890.90029073
 -345429.368149794 -1452463.45580879 -813036.568156450
 -1461162.86457509 591048.545165600 636918.126955386
 1249585.85307490 -990352.969121467 589691.607831893
 1383789.68939117 177685.683991661 -971367.022931650
 1235703.56561019 -1150511.18796859 -198395.323274947
 -232000.713363004 1663854.01321398 -260318.058748879
 1560227.42852987 595851.579716862 317255.837159842
 101502.001626813 1285365.48990135 -1107940.83823841
 55264.0141239116 -113035.413483682 1695337.39534096
 -1120486.53115866 -150914.388643625 -1269541.16939639
 -110279.161787066 -1445804.40391873 887405.280627041
 1624312.27384376 -89493.4793868141 493559.068590337
 -1630872.12038046 146573.726877361 -456916.042129200
 47439.1230366451 1699317.88289004 8262.11205582828
 -932384.867820657 1178785.41538944 794432.755319286
 564703.295643721 -1553880.22395591 395684.770351164
 -1212712.13040366 461772.914842078 1098223.59467007
 1146263.97250708 -1052154.89721634 -684871.504441503
 -339329.978813584 238287.165529419 -1648658.36128117
 1305739.44657525 -447910.879754657 992179.591331507
 -485119.999312659 1358111.23629275 -900106.913717618
 -1231112.50540664 132431.306059973 -1164827.86204942
 946908.609615323 -1405991.07553695 128659.164255118
 946561.807707709 1154406.91009572 813243.770411048
 -1665023.62197116 -181582.520744869 -291074.090976823
 413296.347874749 -1232897.60922728 1095056.89988924
 -1543157.30625504 100394.037010630 706106.624727726
 1282957.60838132 825310.928082882 750254.388246710
 608039.119740847 -320307.199743049 -1554892.83446080
 -179917.196058173 -636398.822820361 -1566086.31335422
 633043.029292496 -988753.441549393 1229480.84771110
 -895412.701084574 1444834.07841104 -26278.9002536686
 -1661845.12685149 267195.058101484 -238490.199559866
 -209855.779520983 1634918.99506215 415933.205438827
 247693.647542537 304986.567554129 -1653974.31980627
 719800.909380519 -1527394.06152080 197367.757462963
 1548350.10468465 249408.179481168 -656054.504847664
 432693.298383598 1128615.73504367 1195409.14842817
 392448.133142461 1146336.31955063 1192433.43850804
 -7233.29707745017 -1434582.89932420 -912096.258286349
 -1654374.81839527 -166567.535198296 -353976.293666104
 114848.340468903 230994.671643755 1680312.86383332
 292264.023297888 1673210.35408058 -70348.0751924036
 -114968.056354894 1660888.36906467 -343849.053399443
 855034.398839417 -185612.127297852 -1457554.22369162
 408505.474200387 798384.334533102 -1444197.26212192
 -1571364.09918913 422322.077179631 492401.188977263
 -400627.792699793 -1368435.83644323 925678.525868675
 -761414.172165987 -1199570.20345841 933423.690185508
 480952.754004247 -795536.647357337 -1423308.08018755
 -1340033.51180222 373940.995164969 976974.062799026
 852163.735575696 -1414337.52859015 -404309.686986575
 1238978.57952576 1138220.38650564 243693.313858396
 1049031.11896606 -507971.939816023 -1237537.15895740
 -107241.978004890 -959062.055162982 -1399535.32734982
 522255.618943111 -464514.612653620 -1549669.39800514
 -888266.745146012 -1428160.45464903 247668.942833769
 1495047.85264325 502803.186966371 -634051.159988892
 -184525.659008890 -1676528.75740850 -212606.694978436
 478945.574407709 991053.275948519 -1295540.25062403
 1175122.04454712 1036867.30327922 -658782.495069414
 -1589892.02471486 587435.996312991 131004.961676433
 916317.169924783 1139106.04009462 -867640.636162801
 1538937.38124703 -336214.457625150 639242.970305000
 1340885.01510168 377691.738866167 -974359.444285337
 -1180434.30007615 -423823.272765940 1147583.85169263
 1306960.16491364 -852477.895223258 -674638.099639080
 -1357655.55941324 485520.511099490 900578.267168380
 1256420.41159064 -263881.553924537 1114349.26070635
 -533919.351481083 -1612116.76635070 77521.9824629924
 333631.832107418 1666373.43690355 -43466.8768937667
 -17976.9169420155 1276356.17114859 1122760.77364155
 1607231.26570339 300794.002726010 465113.562981697
 341037.675845531 1374118.12096499 -941006.213204521
 -1345546.89822366 -232820.313328828 -1012570.11924220
 28177.9190132252 1059674.17899729 1329020.93258402
 952584.496175764 1054956.18344324 932550.389341209
 -863830.014572139 -695536.034800684 1288420.47881041
 -654231.328207336 693603.323683061 1407443.00011328
 628477.150641540 1186422.08878425 -1042793.89064489
 -1051415.31259240 -1332968.78306819 -87863.8936761565
 541295.362120762 1279696.30658254 -979477.765886273
 -104279.893476471 680856.548730395 1554207.21394139
 -1349650.78271219 -881949.788541006 539080.082378160
 -1658320.85177502 -363074.493164450 90271.0639216227
 1324551.67755135 1065562.98216132 11763.6959914913
 1305156.84002767 1034638.70805806 -340717.429429327
 987904.119729358 239303.788463152 1362636.83608251
 1054393.40127287 -1278198.52909092 380082.985125662
 851706.598820731 32859.3178160498 -1470889.57259132
 -420747.859741526 -258028.728468634 -1626773.62094662
 -1584827.68898304 -323418.187882452 523184.357544747
 366945.520378948 1228168.06401801 1116671.03105618
 673470.107497041 1064822.95241674 -1141310.69140458
 -311798.782391981 -1664294.64033678 151343.547748696
 1555132.82828632 -461910.929862851 -508134.017026448
 -1148482.08452077 936232.356531171 833341.392299050
 137468.364135180 -1560766.75978395 659628.357801190
 -1539888.21532816 474908.598726348 -541485.094115476
 1414527.04097829 -940157.918539281 72224.2241154644
 1447748.88347698 -879278.139737186 144544.537674315
 1479564.49180599 107085.614757232 -830314.148800893
 637654.217447575 -1116349.77681286 1112277.06745271
 1664680.35790808 -124097.928019157 -321619.356159388
 1375646.53972033 -581498.921178268 812068.717796717
 -572868.466287428 -1468646.99575938 -636315.740949765
 286994.617548152 -1661497.75797874 -216931.532355273
 -1676174.88054891 73803.8224573070 273844.418616729
 645813.919401899 423401.017603266 1514482.07642061
 -1094094.96602878 -1226903.11103483 -433203.141082263
 -986763.352865437 1117088.44954479 817564.359139622
 1677572.00778960 -258474.557804067 94567.7622066770
 1384655.74628942 662477.808105068 730651.502452439
 -1589669.85180451 -304470.069709800 519853.574494524
 -665947.372228373 688004.252564603 -1404693.64840706
 1497238.68699981 -472870.146625841 -651667.199252138
 1668863.22442307 274825.401856577 -171366.673138662
 -864377.997972602 1408905.74059299 -397284.898712491
 1644103.38044850 -422731.969330848 -90673.9019976286
 380009.956440892 1656763.50242295 -26965.3489693528
 -824276.005676029 365207.837731837 -1441246.78723875
 -473910.996796955 -801049.144917380 1422578.16465109
 1516483.32925024 -710392.238452477 292610.969809048
 -200258.546793687 857438.815771444 1454199.15817764
 -299449.535025160 -1670603.60281063 97023.5963534328
 -430408.121576632 -699307.236047797 1488528.88399657
 -205662.935697511 -1509167.79281069 -755059.818837687
 -1587025.38265564 -511285.322026005 331568.626814263
 -308531.787800276 -1590341.20964556 515386.236544840
 1502137.89739933 -729645.550934730 -318118.071158932
 -683994.094869886 245698.285605166 1536809.82253297
 553532.323249376 1457992.58342383 676653.230095924
 -241312.803223667 -21216.9918486507 1682652.06452708
 -1599352.90996512 447127.070008232 363521.185974011
 -1204875.73697404 -939323.658071282 -745617.545286362
 -1585854.05840111 611074.321992318 40682.6554486143
 -1288942.06410187 1065794.33605404 -304484.463682357
 944912.173883488 -1410978.94268894 -79242.7090348390
 -493509.398162260 -1362959.30464197 888138.732302226
 1039273.09515926 -1210953.03643729 586092.294115367
 5955.65108845728 1510763.77614937 -779459.648022268
 -534248.276457446 143590.188312808 1607470.26004295
 -297577.459638975 -1520043.27202894 -700654.056346189
 726540.611632539 -1425048.32987220 -575652.670607084
 1397840.13797693 964962.330204434 -69933.1820173846
 -217917.731848322 -793332.526993749 -1487661.03792490
 1447436.14582979 433758.321635702 -778962.336802745
 -1641945.15305830 252319.636970052 361041.431345037
 406870.376485353 987030.359431040 1322961.66471296
 -562497.380492340 -568765.493322150 1500034.16979256
 748731.903205983 1485261.80846342 -351280.368710675
 1621821.70821770 458548.665149984 222322.892305298
 1641706.63245747 -427577.237934320 -109439.657097539
 -631077.927889841 1272301.27448959 934339.400786695
 725445.014868540 -1516067.15439660 -255479.771727956
 -1458475.34342752 -318499.467281365 -813269.796534622
 1397692.21038395 885547.485412939 -390207.811442631
 644787.638229080 1266464.42704709 932907.689222923
 -515008.486701928 -980170.184401624 1289973.90215271
 792195.096363191 1483106.03047912 -250646.028603244
 -1453177.07022888 441292.851922123 763895.949330440
 191013.923667860 -1675409.10545503 215680.342922997
 507366.334736479 -1277963.64437935 999694.116227925
 1661919.54650858 -171230.813830016 -314171.019236067
 -663463.852030727 1467786.26758190 -543524.783010436
 1589650.25207922 -268353.274526401 -539442.857136348
 -1083127.37029713 -1287072.36885127 245519.484059411
 1404274.06924836 -206428.890221157 935628.907055946
 -1182880.45377888 -1048904.56817643 -624974.430618166
 -1421262.34210186 -916275.985686188 -174504.077253042
 815190.779871304 1178875.06037405 -914175.904539660
 355220.263590003 -1586460.37188516 -496952.767144987
 234188.690540349 -1033862.89638240 -1329015.86473104
 -1568788.15743388 -29032.9512254504 654263.559155148
 1475942.92256417 -222312.627695687 813738.032108478
 -709190.923083808 1484661.47338570 -427584.546095567
 1547615.39642647 -458394.262762821 533630.288317541
 565712.710213405 -1486103.05837493 -601221.115224410
 620356.804143258 -1546580.33274622 336521.485073037
 -1467506.32789421 282340.851123397 -810375.728521883
 -682565.384714355 -1249373.30568785 -929069.878224645
 280876.560324492 1676363.30588723 30239.4532872354
 -22162.1920986446 1444850.17940193 -895498.071647050
 -1438710.42116978 802059.371501965 420491.484578883
 -768103.498074022 708689.346853826 1340811.85328231
 -1597393.11912420 571327.387406511 -109179.848753789
 1697105.93019983 63526.4621645459 76130.4819729948
 -1427136.50216514 -658637.464128779 -647671.286250883
 1042618.12445713 1332390.65839232 -166380.828169520
 394143.740412910 22243.2504327474 1653528.33350490
 931315.464003090 1401591.83694260 -241229.826357721
 808646.243715482 1307443.90878675 -725728.377494828
 354303.885046326 1376178.16174776 -933060.782676903
 1121879.49877116 1277175.60164946 -14452.4319168279
 1636066.82441441 -135754.443618339 441425.052628909
 -1541929.12378570 -552456.003169085 455243.826738937
 -1407489.99106430 340182.788625141 890644.483156466
 -1299625.10922520 -679369.376748822 -859902.218515166
 758731.275104870 -1461922.16678606 -420844.900690603
 1204963.92311395 957191.037287853 -722389.965413178
 -1469179.29081257 -383208.382723947 -764632.949105373
 -490957.192631272 1438331.36541651 -761684.920595592
 -413433.224258309 194907.362457634 1637401.62731664
 153346.985692483 1196396.49335909 1197964.99642398
 1358111.03848169 -910737.425496835 -464856.697223559
 -541562.242134497 812852.480465988 1391395.40853581
 633522.458407706 1505402.12045366 -471607.623376351
 944218.454483983 872279.138312795 -1112466.00625645
 -835705.659515448 -1069466.53656183 -1023639.28110848
 -1389996.93857549 593894.004930959 -777944.999121302
 -1302793.05047933 802668.530855072 740576.462762430
 905171.697527279 -127728.526557500 1433300.25517999
 -1512577.98120176 761055.881375952 151333.394221736
 -233670.971701522 -1045926.09062507 1319634.98359729
 320789.363697166 408880.993734480 1618613.76402818
 -1259362.78939294 663126.964724545 -929660.149381290
 408536.918302158 -1000555.72842066 -1312244.57351089
 -122997.472853141 1635508.70921099 -447194.458559958
 -42818.3236469699 -1507229.77084156 785127.383963250
 -1640223.16990680 437198.827585404 -92331.6741905323
 -1290483.69586903 -193516.032323767 -1089588.62692755
 800995.512980712 -616619.848947072 -1366816.06299797
 -1016387.06676456 -1319898.57781832 -338858.487848394
 -894756.697874554 171844.343312909 1435228.19554243
 -142100.235162483 757607.222101120 -1515202.56737738
 1387560.89130333 946433.690096058 -262560.551447977
 941546.340718194 1409727.84969252 127113.642389279
 749446.863578181 311936.901811826 1493661.53058880
 820485.537513196 1486548.08633155 83536.0386641112
 137391.488903797 1549123.31138692 -686542.456731124
 -460463.972519793 1624824.09905377 194729.497368544
 748093.242573048 1271630.37453921 844578.410193998
 -1655441.52845206 139144.483285592 -360766.071918502
 319830.658429241 1479940.71430351 772970.783455329
 1218134.64347774 1151355.88924007 283773.865377991
 -1109327.88444529 -1229943.54426959 -382923.651269687
 -540622.462399974 -1120109.66632729 -1158914.01257762
 1019064.74113427 1339544.75392972 -239012.354484667
 490286.872118998 1570752.80907068 427029.736463796
 -721932.875711110 -1321750.03136394 788536.478266483
 -663819.471397654 -961384.977596249 -1234942.36069770
 21916.5547370064 1169038.42070809 -1234045.71857642
 690558.675694277 725072.610493866 1373826.19895494
 565279.357376622 -29685.9599300913 -1602990.32807653
 116587.068579146 474009.863879684 1628410.91386200
 777550.496554855 -644853.166256823 1367325.71806276
 273755.112767962 596842.544371455 1568067.95626389
 558096.136483001 -332157.600546885 -1571050.61371099
 882988.050120493 -1419187.37649151 -310224.585988196
 -1181250.60014093 -405311.764924826 -1153416.40047306
 -1144275.02132705 -790809.142567168 -977371.769389292
 1543659.47779476 -125195.574951638 701028.875744035
 -1519605.71742678 -760745.825585736 -45434.0446990716
 155021.252932062 -1061870.38374003 1318483.86386606
 -937253.692048264 528948.560394803 1315966.92101214
 -782688.036709767 195646.691288718 1496369.54305385
 -492131.039993189 -1226534.28557740 -1069308.50823247
 -379580.891100055 175966.233821700 1647711.81693471
 -100922.755452235 1444565.87906030 890530.189542537
 1448099.66871087 -853561.573608261 -253850.329010745
 1419071.50866175 926808.529878364 131384.939202164
 -748389.523026612 1498048.84102248 -292852.849969393
 -962350.401724302 -1388579.42547781 -189020.854512910
 1345429.26489135 -921022.856966532 481182.907135246
 400646.709694107 640683.533181754 -1522828.56038394
 -759144.820190099 314445.580139935 -1488228.18112983
 799381.986459727 -1071793.19686622 1049879.88973739
 332779.516857172 1490135.23707535 -747499.008953664
 -753672.217286306 192418.352670615 -1511606.22069581
 -1223140.79459259 450446.123301284 -1091340.86636864
 1040909.65703120 927452.822006459 -972799.233578776
 -270574.020970713 766851.575650227 -1492892.61505927
 -797557.567938454 696878.088000358 -1329760.45071624
 -70215.3035786403 1698018.17957543 -42474.3802154895
 -210294.733658852 -1612070.61915815 496995.416319323
 -1635592.61577065 -411277.513168327 213746.584530838
 -377459.950456323 1657474.60914054 17375.4382942375
 1102022.41553374 187539.038808879 -1280771.52708195
 -1582991.43468381 519353.140455537 -338246.113379969
 -1020708.67573004 -583373.150989766 1227937.11809428
 535640.888916142 20059.3313092747 1613284.37088709
 79443.3289317464 621375.004629787 -1580373.96242458
 -1557041.33305039 -179380.308580190 -658365.394037651
 -458650.794103989 -1546914.98950777 -535437.638109195
 -809167.340171270 -1494477.42460512 -42254.5020772925
 -425577.785913477 1461231.82615040 -757420.027713916
 405522.375804793 -1179705.81738074 -1154922.41607810
 -952081.247427345 -1347202.33663318 410593.670758938
 -953492.367209734 -828490.261810938 -1137741.70696042
 366761.238968305 -210133.188253402 1646611.74439662
 -764837.178798262 -1453091.79856964 -439941.262963105
 -406225.293257640 1640503.80239125 183652.621700861
 -1649377.11120751 -400201.370227060 96922.6923539845
 74202.7708515392 1351423.06564144 1028664.01047681
 388660.791762559 -873351.697789885 -1405773.66631831
 -708254.880031734 1473859.93097837 -464878.402130794
 -117059.681358397 -1693367.46500003 -93827.8182611512
 -528647.825890113 -318440.610804481 1584022.42836777
 1254917.71967237 796585.752644455 -825004.639705836
 1564947.42874906 452817.879120547 -485690.759229028
 1521871.02865260 565483.092597747 -504120.465894787
 648009.599662574 1029109.46192060 -1187862.48115287
 152488.675017353 -1396592.69036912 -957223.098968572
 -1308631.83211504 119587.860840773 1078508.91118931
 -394482.804083329 -1648568.87098102 -128856.489611141
 1624757.74648834 -487475.713083409 111936.117406142
 -1060485.78666662 -230352.592994054 -1308551.71054834
 -10682.0199756621 -436953.535725724 1642850.41986969
 -756274.552636402 -1497314.97345474 275856.251157807
 212406.097414379 1601913.23068640 -527975.047831856
 257081.023593661 -143779.680638042 1674286.93799589
 255697.340409500 -1629660.39929990 -410884.233162099
 59450.5892284904 1077424.45724168 -1313629.38699538
 -175471.439846545 714195.584949783 -1532688.63120871
 864870.638522569 387215.052022227 1411404.71945824
 -1172037.24950909 -16963.9042749628 1231276.13138358
 -816558.615903993 -950272.098992415 1149006.07686361
 -1541386.55503925 107577.125956920 708910.889967905
 1477498.47125263 705829.685364454 456949.365580536
 -153150.297629484 -203643.268171916 1680795.76560160
 -109635.088192609 -1559259.88132609 668347.791141663
 1031046.24589096 3152.27745195920 1351641.11434250
 767112.007147084 1209581.41612462 915670.227896879
 1334653.54332134 -1035900.84601994 188704.415727280
 -1666303.02774929 -8679.95066156837 -336688.102210424
 1405171.19349348 891251.527787448 348087.102881808
 1101555.24528144 828193.647857416 -995324.732557956
 315996.215729060 1474552.79165973 -784755.029454032
 -1202492.10141007 -556513.249466817 1065037.90975452
 1412287.74478915 -11922.1663386741 946203.565765940
 1038818.38673085 -195744.789209634 -1331367.84431921
 1674167.12869104 271992.548849934 -114823.684754077
 828036.634836406 -1167815.98014892 -916821.230053940
 -1218366.66272412 -1185443.08403578 17531.9615057707
 -732142.642732882 -1503297.57804985 306697.803255185
 -42244.8726596890 -1319669.74300861 -1070834.78656679
 -414997.738209751 1068886.11555611 1255093.36276317
 -815370.942558934 -424337.979661950 1430072.55237172
 718608.779676707 -1459077.72872112 494665.142618282
 -761951.149835710 -1348607.77550485 -700490.908657555
 630163.858159292 -1264548.87721366 -945415.067051224
 -1194980.30678186 1037343.90021162 -621240.451916378
 234344.172284544 1261739.68981963 1114942.04515308
 218553.206646473 1674369.93028183 -196773.556232981
 -1102748.29754317 742136.335754102 1059801.79817696
 -80657.0328559461 -1002424.07716750 1370635.03988690
 -1091798.50117033 -873374.173037228 -967054.076416490
 7165.12741322601 1691987.53783666 164702.254855803
 361919.958198888 -1419821.89013329 -862043.934005489
 -804740.220469535 1086272.03515835 1030730.92666882
 -453347.325039898 387834.797017367 -1591873.22771057
 1499979.66506116 -334146.294732144 726916.266236901
 -238295.964572162 1660371.85448228 -276369.929825382
 1201882.64139066 -1017598.82377074 -640289.583067087
 -893431.804153781 -1200726.90632010 806247.175353485
 1293130.66385355 -1050051.71169658 339417.867774752
 474129.093335229 1484961.25459118 678300.578811559
 -1112126.57775019 -143744.535997491 1277697.92338898
 1381589.74799038 633363.597621489 -761616.912532703
 1630535.91244089 -389865.606387408 281704.538828760
 469776.396886904 -819468.747727260 1413428.84802394
 576432.453043711 -949243.736773078 1287113.80820621
 -422334.918473505 -603628.294190084 1532079.01202619
 1081694.30169313 -888140.885721878 -964957.618133446
 -295722.918010746 -1666790.43136476 -156069.259221988
 1647829.02033821 416359.490203201 -36115.0197141685
 -1085399.21938090 1176057.34519010 -573408.803029514
 594319.428495838 313691.032694706 -1561532.05311941
 1584822.40367751 -16816.4486266446 614861.899825823
 -1008975.03726553 -314967.094737335 -1331452.25352160
 956071.479688808 -547714.050740384 1294579.71726241
 1694632.21539916 -83937.5844793882 -105717.247614165
 -354458.798041130 -1659088.61926185 -108553.737508428
 267608.815282722 1617335.39531787 450124.139582588
 -1660565.54017132 96126.0555896405 -351115.178014741
 1485785.05974815 685573.181719393 -460903.643657030
 -1554474.74562080 17879.9070408009 -687959.718407520
 -927405.193839192 -1219058.00646061 -737439.613340899
 -417725.934456567 -1502517.98675178 676716.146674332
 -18994.2046922612 -1666547.05611208 -335052.428661943
 724678.236225964 -1480333.15576035 -416479.533587210
 745806.687038524 -1524120.91829714 -104056.772858383
 34844.4350943548 1083482.93073433 1309523.04452816
 704997.136441341 442516.806514361 -1482281.32065470
 1613022.51029229 -40371.9359399997 535283.558573218
 -1173884.92321977 1030153.39569637 -671400.155177636
 -1468823.02981685 295417.748788272 -803297.741052794
 979442.631559885 -1386572.02138730 -90056.4322466010
 857758.299477150 -1097384.87120258 -974677.969451324
 830670.748546188 -297580.767382126 -1453076.66500910
 717200.546739751 1353065.32344201 -738131.157894694
 -1398910.74074265 -726644.803173989 636424.441277260
 1613764.68635136 489424.157583565 215005.886102913
 852080.125174238 1386637.13443139 491118.028277267
 -1045587.75071386 1028203.05642956 -859967.865856653
 -1573363.67618785 -591059.354939528 255295.086891850
 1210393.71116249 -88613.0405239607 -1190417.90688287
 -622759.572647595 -356924.593756945 1541030.61262495
 -472163.490544987 1580319.92903207 -411886.586453664
 601714.304875384 -1430686.32062305 -693596.818973675
 -413700.259103632 1583821.36181337 -458652.362341267
 -1151686.18414747 1147022.97536568 -497953.037170290
 118701.784388436 -1596678.70098167 571425.421393279
 -968111.918194318 1040494.53411693 932807.824968737
 904416.723048501 -398978.397219735 1383056.98712026
 -298284.128564063 764901.435499440 -1488607.52806698
 -870294.997086658 -766629.088037278 1242926.57040594
 759584.255956774 1276088.28231521 -827423.986744653
 -687654.898445859 495737.919249873 -1473558.50106510
 754881.638741478 -1196684.73931837 -942390.230304568
 -198666.743021085 -1460192.01206960 847567.586157892
 936520.856581876 -1352080.56890957 429891.637932545
 1459220.55603679 856279.966666429 165710.553452175
 -1471741.44312395 -717771.062378871 456926.500219618
 1669549.62516031 283912.678806677 148316.013767462
 -180391.581897760 1291845.73451213 1090226.34136368
 -1186271.45083955 1168846.87678468 341404.486721744
 876472.392506365 -627927.482176315 -1314345.16863033
 103306.728107049 -1411912.72668610 941185.514205156
 -541168.068505366 1607594.34533602 -113037.792237038
 457223.993014255 322185.665041967 -1605348.12967579
 -705513.340860290 -1184326.70312657 -994797.057760780
 -1540802.84184526 710705.458934020 -104040.151878728
 268699.550359259 -1676950.78154537 75077.4793870525
 427361.037532100 992035.606381505 -1312717.75308738
 -1538488.39122126 697843.596240096 -189915.205457890
 -971748.048250141 1386616.06431584 151662.852746787
 1030075.01161875 -1186412.10781585 -649131.558982139
 -672242.710142755 -1455306.19473261 -565838.862427117
 638570.820368131 818729.370831317 1346071.88690372
 -1015367.92671301 608320.772661031 -1220235.14576151
 -1050383.30460915 1101636.95354215 757027.698296916
 -1367568.93141546 -305235.685755339 -962593.576733528
 -209666.942266245 1156687.91327636 1228052.46003626
 -213988.126815876 -1665408.10729527 265753.490545289
 557923.582797459 648539.602441856 1469053.32095980
 -273980.808700989 1353942.74606661 990844.870217912
 -423403.454396079 -875609.818060202 -1394287.25925544
 -65357.5128215645 310479.395586515 -1670129.01909823
 781631.984020525 -1437489.16034311 461168.467538917
 -342586.335395224 805570.688900972 1457288.73871450
 119688.915848225 -913109.563189210 -1428952.58460016
 -834367.200095601 -1473558.05517273 149860.046177024
 1310314.97473729 209616.839209262 -1062607.85226684
 1287642.69199283 -13594.5051178152 -1109861.02156444
 1592607.24695606 -49882.7787334391 592548.618535963
 951255.887743340 -1207559.50087178 725887.241855054
 542762.958922647 -1435138.38166789 -731974.177061732
 -1567383.24411152 317347.883809381 576714.909396460
 750622.882081463 687381.986071851 1361642.86584979
 128182.985599754 1193575.19982222 -1203722.29545360
 -754881.958249589 468370.554668117 -1449407.55228788
 4240.20556581483 1635130.13325086 -465114.467622519
 -188786.881981350 1582133.10798490 592633.395793568
 363620.745034684 -215021.109745267 -1646677.22281701
 -943080.720388615 -1021851.85585404 -977966.021658699
 605448.070821205 1587717.60933215 -50847.0899410346
 913920.769707765 207554.185589846 1418333.55975980