# OOMMF OVF 2.0
#
# Segment count: 1
#
# Begin: Segment
# Begin: Header
#
# Title: Oxs_TimeDriver::Magnetization
# Desc: Oxs vector field output
# Desc:  MIF source file: /home/martin/PhD/repos/ubermag/oommfc/docs/ipynb/thetaevolve/drive-1/thetaevolve.mif
# Desc:  Iteration: 509, State id: 1027
# Desc:  Stage: 9, Stage iteration: 50
# Desc:  Stage simulation time: 1e-11 s
# Desc:  Total simulation time: 1e-10 s
# meshunit: m
# meshtype: rectangular
# xbase: 5.0000000000000003e-10
# ybase: 5.0000000000000003e-10
# zbase: 5.0000000000000003e-10
# xnodes: 100
# ynodes: 100
# znodes: 1
# xstepsize: 1.0000000000000001e-09
# ystepsize: 1.0000000000000001e-09
# zstepsize: 1.0000000000000001e-09
# xmin: 0
# ymin: 0
# zmin: 0
# xmax: 1.0000000000000001e-07
# ymax: 1.0000000000000001e-07
# zmax: 1.0000000000000001e-09
# valuedim: 3
# valuelabels: Magnetization_x Magnetization_y Magnetization_z
# valueunits: A/m A/m A/m
#
# End: Header
#
# Begin: Data Text
 -1361475.09424552 990603.516524764 234713.103166217
 536670.948028754 -1590289.85636433 270115.653538680
 -1004600.18161202 -1371350.97073804 -13228.3846681069
 484186.197562034 -1592961.58326879 343565.307212796
 -337294.797376165 1306357.15228743 -1034245.23703542
 -1580095.20560713 569883.434554343 261786.195659582
 663367.699890530 519056.763487466 1476659.53117835
 -1281259.89007386 -561531.939757032 965947.708067385
 1235889.15197296 1164267.78329231 84015.0749756892
 -19820.0189287841 1676702.96860516 -279775.484845115
 694366.420991288 -1522299.55611383 -300764.583778361
 1323403.16862593 982132.860542232 417155.963056959
 -738325.510176376 -204807.313359247 -1517540.57784870
 -346931.497084566 -36276.1672520501 -1663827.68819976
 303537.011809072 159731.316003732 -1665037.89420834
 -247388.264713650 860121.374868837 -1445333.96382141
 569907.337736702 1576977.54767878 -279906.128033846
 -52726.6459779253 -494191.668419999 -1625728.91210933
 932066.020434004 428194.014655587 -1355692.74519172
 -1296722.59983260 578788.361965979 -934619.992904131
 583854.767636777 1333478.00430101 -878037.597346031
 338483.889428152 1545993.03331096 -620752.927944417
 1038632.30739862 -1167633.60297839 669234.412760966
 -1462351.08034568 -233355.761043315 -834909.819441423
 -245499.053358903 452984.854897733 1620041.64638850
 76625.6368168561 -1691338.01763696 153310.866797831
 -103039.049883366 1403401.19781607 -953859.545304000
 1133655.93571512 -300084.779831077 1230761.28649369
 421868.939730569 -1378986.67537569 -900234.606548152
 -44865.2331374380 857170.980619678 -1467393.95556852
 334403.844226736 1370544.68873507 -948568.039281569
 1177183.84607398 489030.211292535 1124761.15019397
 679061.805681893 1528534.93738320 304065.797588258
 1379022.06237657 980094.038062781 166474.706885028
 201983.551398006 -933085.615040844 1406610.77770949
 132369.416780442 -1694807.94396818 10216.1912455120
 -1072753.75412798 1290305.12367902 -272602.404266715
 1043017.07416019 -753442.555538503 1111053.41838902
 -1187537.71470517 956979.995172082 -750961.693426014
 1695613.77700525 -53816.5506819840 -109534.004321478
 1574305.26610621 -638270.538583315 -64603.7822950245
 -199177.853206400 -1686254.77700907 -82903.6175699854
 487860.218119004 1361283.63190916 -893811.658613318
 -587227.686401564 425009.077546547 -1537703.13400425
 1331616.66837861 -829203.669529838 -655147.558138236
 -100232.866989916 -1477688.86910289 -834499.238168852
 1361116.24800138 486266.804781603 -894934.161820937
 361077.152304172 1650728.87866860 186326.217192918
 -1633506.97167404 138363.575446307 -450011.660384502
 145870.791521085 1481407.64061193 -821068.276404348
 -332009.339588414 -1652126.21194272 -224162.392559192
 -1112820.57661942 -1281179.36745294 101043.518670431
 945673.362369356 -198251.008409109 1398713.13333714
 -1204342.96791827 1060568.43457976 -561028.173266604
 604439.276816243 1582415.16113008 143580.703674048
 1437068.50602116 108557.757764231 -901692.476530278
 365424.550564757 1527547.61029522 650433.083511223
 406064.795634393 -1012637.04853967 -1303716.83646076
 -346503.951213787 -1552314.12817359 -600213.178184133
 1126612.01237463 1060301.44625144 704631.972486564
 1378156.00086804 344394.199930008 933851.525846577
 1464474.30487338 861103.594862255 -61770.6182656587
 1042493.08549590 778206.926232544 1094350.10241555
 430956.779098020 -1576082.36342271 469298.027118522
 572892.676601460 179506.087683522 1590462.68286338
 1579858.72985975 -458845.746761282 -428377.140339003
 23069.5569384600 -1640042.25316158 -446910.733130617
 1351281.44516496 -927974.679399835 450445.835085271
 -172711.871148418 -96144.3417463640 1688468.79601448
 607704.978642636 -1144212.99831523 1100668.55747742
 671310.551531024 -1477986.47473147 -504874.364484825
 609377.683352065 -1512910.59125750 -479333.268085307
 1660525.01688632 333132.098231067 147240.189564077
 764537.440075636 1417337.41623812 544644.059229539
 -242605.905577973 -1579351.86343136 580336.166419574
 -105333.412853122 -584229.233440419 -1592978.67999868
 114569.444744995 1381616.37700387 983875.006860890
 -1198803.95444138 1050848.01490108 -590413.015095496
 17642.4963306102 -1688310.18679007 198235.858270149
 -55212.1476483078 -250620.908878321 -1680518.00906300
 949093.070404864 1100030.62999823 -882697.545467959
 -799850.545419233 -902096.860053378 -1198524.24258936
 909160.809478094 -1424308.28748703 -186473.924999948
 -552194.589355592 -1355785.07196533 -864249.948870329
 -33990.1091528751 -1649858.12876885 408427.260861868
 813559.204099496 -1476035.85285552 222350.134945000
 570186.190825711 -1136705.07418165 -1128179.63202734
 731091.427925024 -1493931.63457946 -351672.568189899
 1654651.40968909 188468.115816989 341479.840890062
 517819.174392521 -468008.152838891 1550106.98711662
 1449769.20381042 774847.807523033 433336.048419308
 1164980.87402508 832632.714880446 -916265.422935180
 -853530.489913760 -838121.442608445 1207906.51551663
 898477.290467326 -621714.852708910 -1302385.96446508
 -608478.984226423 1330855.34653770 -865203.659462214
 80638.2221211308 947683.792759050 1409039.71060966
 600901.011845825 -167408.286072686 -1581421.01912074
 -181388.246227447 1508783.35796200 762017.770703179
 -1004219.47839270 -175409.603330712 1360431.81022647
 480873.167437202 -1630567.95664730 3022.51451079161
 -1693390.80006008 -148836.978578485 16587.7086878710
 847302.119656789 -584806.621884153 -1352804.61746165
 -1623524.37589583 434848.941961598 -255098.017528413
 1066262.48418338 -927493.332932519 944902.340027162
 300517.403834507 1299660.95369146 -1053836.18055292
 -1179257.80460173 1216403.31996793 140406.529253190
 1405598.24853270 -397240.586974737 869766.336312100
 1643147.86374529 172986.115535180 -400176.088367789
 -762559.363679321 -1463730.78778409 407425.327830698
 697992.930910855 -1537822.68880575 -194697.833045781
 1629289.80016961 443316.366759925 -197193.676435256
 1334565.89935057 1033295.80695089 -203060.669821371
 1309099.09343717 -1068074.05901467 -188354.368205068
 -1176614.21756816 -514616.305893167 -1113889.15100441
 1315661.11099331 -975534.886727195 -455376.246413882
 254969.064547606 157678.210761348 1673358.40690954
 -628077.890670478 769656.221598048 1379546.10789431
 -639262.796128333 393945.800708736 1525172.05048812
 734166.211914566 1184204.73984043 -973991.328207019
 -750235.051301629 -992792.859252317 1158235.60056495
 195621.658417583 1648468.06644031 366449.451745406
 -139926.052680197 1037071.50931177 1339740.04357381
 1655337.63834350 -383109.492621806 55537.5525786565
 364577.041894980 1629961.63183316 316715.423171810
 -1538176.82202290 -690250.538815779 -218096.900152325
 1457320.49739246 -714080.775588078 -506266.346714185
 -24081.7190273719 395645.900659426 -1653143.79050949
 -1003886.37588825 1332693.08429962 -325793.320014241
 697487.261091253 1457170.57028088 -529306.574418560
 1304123.78677249 -390888.824776835 1018070.27038352
 -1615150.77701344 465325.593208463 -254479.979208694
 847088.712440397 571650.278230036 -1358549.47376074
 1012944.28238454 1358273.81565151 137971.455380943
 -1236209.05848495 -1160399.32389958 -123533.691004345
 1692800.36077058 -86418.7705863978 -130225.706622474
 1227384.19701246 775589.192907182 884301.666157912
 1190122.55298227 -1190516.71354547 237230.402039595
 289618.899330813 -1123156.83290432 -1242835.31565962
 516412.225432271 -1272036.41951175 -1002617.45489484
 -873386.492946709 1374577.81647126 487577.542964564
 -1424020.91482354 -650252.687811773 -662824.166833625
 106020.123739310 1676510.73906237 -260905.107598234
 1686589.94980795 -127599.755257922 170682.874550835
 17859.0709454582 1346428.27002490 -1037695.50797078
 1356437.75011110 155196.301470197 -1012912.00905286
 -601956.433358190 -1490146.97256155 -554175.470861294
 121816.871787907 -1661411.25101042 -338929.645743472
 1510299.63064336 753825.276223563 -201847.661876445
 1006131.59041657 935189.548439865 -1001558.65093097
 -797704.631393009 169076.602216459 1491670.34683843
 1097276.76430375 445792.576148701 -1219529.69687900
 1490942.88075951 -485097.241133002 657092.073424777
 1669995.84908116 -277483.300943069 155296.109897945
 1646303.66687777 -80143.3047235323 416246.666212238
 1384799.10711274 -294189.015750086 941161.121143315
 998730.259146716 381113.040153131 -1321851.24733836
 682517.262954067 -489165.953884594 1478136.27765841
 -194857.016638999 -1092818.33940646 1287547.59916807
 -1096930.36697717 -1016661.29135047 808172.994273455
 925990.068444713 1362295.16875112 420350.171094415
 996372.071829489 -390531.272655389 -1320881.53123449
 1085055.38504024 -1231465.30619610 442886.002296865
 -1113274.13050813 -517005.056201709 1176149.00510235
 1374681.85116885 991567.144228310 -130554.228403021
 -289945.559071246 -1674955.44368818 21350.2794875493
 444793.500623793 1602954.92880193 350277.372995217
 -339622.592848738 339031.084486906 1630863.08995523
 251666.466080737 -86282.6355518921 -1679053.09524525
 -373258.397426696 499334.868058965 1581563.42215258
 58399.5848836306 -1646385.29611609 419529.433077273
 1053310.08978287 -1229621.99187802 518235.093226553
 -109045.754855619 969139.810300374 1392435.65432623
 -1405559.71047274 466018.607930178 835002.130152129
 1610123.90908199 202450.873414242 506472.744830703
 1418084.75294210 -704943.283057478 618134.775874403
 324145.721692053 1472359.53740598 785548.816890697
 1554977.10581792 639068.107396479 -252266.039115045
 1634392.94128940 1981.53656309709 467713.359843664
 -559540.786838086 -362841.788563249 1563732.69593522
 919782.136909299 -1187574.34653603 796032.657666810
 1197093.92211854 487891.346728684 -1104050.80291358
 -488718.890063890 -1335986.99254623 930748.409744540
 919968.109934359 -497709.815136356 -1340128.20902358
 482420.376558165 -1628333.94525352 -76152.1044790476
 -1675927.52120851 -278729.789293849 -59805.0852028347
 23360.7273889684 866188.965612157 -1462590.49370205
 1148023.39924819 785412.918686412 977327.387285915
 652703.283292531 1534851.93524600 328949.784694798
 -1065929.84987091 611184.425200677 1174839.20327265
 -187646.691535800 -1689061.94074687 -43110.0855493766
 1496802.81516571 -805736.478300159 19236.9448841597
 -1059871.73290013 -1142613.75875975 -679047.647880618
 -822384.886082944 -1485827.73446128 77453.4869970772
 1501052.47984369 -615318.112825377 508158.511474636
 479833.523732260 821532.668395882 -1408844.86877052
 1679600.57505354 -88697.8501137876 -247132.757167121
 1565346.35004611 -249009.153060941 -614561.019012106
 -539122.797386253 -134397.848124625 -1606637.42884258
 1161927.96151032 833142.717981040 -919672.019654641
 944138.578173283 976209.017528688 1022554.79036607
 1149731.27105017 1231704.45619774 225880.802530867
 -85202.8011767511 -1482416.31600826 -827757.421412906
 -42859.9090169315 1381570.46466398 -989659.577515022
 898713.261957431 -1358350.04640523 -487031.440681949
 429546.129620683 -1641641.27715782 102489.217284285
 -95148.8950230050 475802.678359836 1629281.58985533
 -1035265.51701457 1206710.06588548 -601727.617922926
 1253584.13436283 890312.204470315 -725169.633013547
 1475309.89146316 -595367.033600849 599165.101998020
 -1239512.19009660 -404816.706333829 1090748.80924755
 209.248918719866 1356602.02248834 1024514.96269964
 -1174405.81903129 -116204.324481639 1223628.83555317
 1085373.03365203 -1283198.54705311 -255669.448041375
 359849.371386568 517742.247503561 1578749.94697154
 -1329158.54175570 687381.539321897 -806749.149536157
 1331410.41637477 1020641.65655722 -275021.657454281
 -496351.679562873 1480493.17050987 -672142.084881434
 -877230.210450244 -1417980.80347530 -331357.207329140
 -656217.340853310 -1359493.76234923 -781764.358164875
 53746.0924467922 164368.745545707 -1691181.32470603
 -993927.256179096 171129.507827780 1368511.34484699
 1168876.54049799 -582758.189728668 -1088173.02180196
 -779404.453333753 -1505318.78919521 -128623.640981614
 271711.426172022 -1306219.02858643 1053548.64635967
 -1298828.53933075 -1055929.22747492 296745.500360452
 -1002176.37131771 -1045657.36483696 890080.443631184
 -310829.406497975 -83866.6778284875 1669236.78979530
 472310.016631588 -1547461.57405150 -521810.238519251
 -1130319.16723822 1175110.04514001 481139.233470876
 834487.248848460 22356.2035912145 -1480922.42594618
 1407502.97873558 589610.221081327 749196.337448929
 753135.163920369 1379578.76895991 -647726.674687486
 -313219.904378303 1630516.68483857 -365114.546360828
 -726037.660366527 -439251.321475969 1473067.40928958
 1565028.81784423 -417854.201216192 515832.013201067
 1417804.58526435 -761152.855003022 -548157.358177494
 1075725.02960479 116831.511689632 -1311169.72911904
 798406.468985341 1004590.25342553 1115054.04936478
 324517.780043009 -62910.2210177199 1667552.25241294
 960493.505088429 -634781.901352230 -1250801.40885697
 1529480.97216173 128580.874023515 730859.025141346
 414007.296925276 1647946.83172111 -53564.8944083213
 1363491.63847599 -266879.256263229 979625.445965168
 697696.165080891 608359.295784673 1425874.82917113
 -197149.867296858 -608143.450516583 -1575212.19948889
 1298126.29118612 -183557.054631509 -1082208.36248218
 350621.167475934 -285043.016856789 1638845.71435477
 -1476899.60863414 -682550.289547771 -492841.402739850
 669300.960561132 505506.673165603 1478681.58424219
 1641016.02822448 400159.082766546 -192195.482750711
 -1145754.87281215 183760.291079085 1242367.87098256
 -209793.840636976 -1210797.51513800 -1174715.25135517
 218418.210383524 -397171.182111128 1638459.19615757
 -50665.3586518313 -740576.309572709 -1529372.33894574
 527205.080108415 1544109.15733763 -477264.825577952
 1626634.17023835 -370336.477471695 -326974.264532917
 1543242.61664264 331884.817161925 631074.238355023
 -954217.559532742 -371743.139961721 1356936.21330215
 755219.475618816 -1486065.19105999 333547.285352273
 1383367.33186430 -250185.225328739 -955877.700418753
 381454.120215469 -639456.284965163 1528263.20173889
 1259034.81796941 -640157.154186572 946060.328459287
 1192945.72499488 1190030.44284578 225184.462867082
 414403.344106940 -95288.9432755789 -1645961.69022320
 541648.197379635 -1602161.09887188 172328.301613605
 1617705.56814187 -484432.581650279 195841.182182000
 -68073.1973020283 1100904.08017991 1293590.44757308
 -597667.456638505 -71573.5755084636 -1589865.03658776
 1210667.92464326 -722416.910426268 949945.779384356
 1101981.63326303 -227725.902799758 1274275.24230246
 918886.634843949 938916.021581882 1078927.27128478
 -890254.881803690 -1215422.53460750 787524.163307365
 1323603.05867015 254248.718955564 1036065.89172141
 1423468.82935935 547404.753520974 751055.608903201
 82471.1392309723 -1426607.94512593 -920862.792221256
 -579392.754508388 1521485.70617170 -489270.152306875
 1239467.28456587 484428.115785177 1057851.71509420
 1062777.34737868 1018119.03301100 850845.429275776
 -715938.894330907 -1536567.12878975 128034.988604880
 -1282926.02514431 -634884.810099954 917072.566328187
 1486561.05065769 -641292.193062671 518536.947366687
 793533.922291534 -776082.413250818 -1287633.48900819
 837767.297582423 1020676.03752242 -1070685.00574584
 1218462.06656308 472846.556309264 -1087090.76278537
 -444007.789440986 -448486.783975111 -1578517.24333800
 1046317.83352683 946533.636732528 -948310.637806834
 -245096.893363619 -1675933.66311875 145512.438261673
 1104322.23719368 1262106.87939875 278493.485406569
 1493348.33667007 240770.837908941 775848.019252074
 1275417.98107504 1118396.40992776 -111796.439170371
 -564766.125413458 -675300.300952905 1454306.95766691
 -458013.470642462 1627294.00832976 179270.385630459
 16820.8206271522 -1699911.50571345 4234.70618168642
 551522.349752047 1405622.63383958 -781055.765590304
 943562.764707445 184322.814789170 1402039.37498411
 181103.014197836 123272.956131640 -1685824.86532114
 1563242.21853339 445253.627849335 498019.048914620
 -148186.024109372 -660167.202613591 1559557.68307940
 1677805.60962772 2532.00221131386 -273791.755293260
 -1568399.81436375 316073.819672648 574647.163763379
 1171513.97336327 -649678.309735514 -1046648.51028118
 634702.982173381 -1562113.56566650 216687.176318592
 -553946.245518171 139091.970991132 -1601186.11681532
 841455.015711445 775280.799044768 -1257335.73048990
 794215.505513260 1375305.00756166 606430.430451952
 794387.978877971 -312411.821020949 -1470151.89456755
 128390.849114409 -1362285.72816531 -1008807.90277475
 -1474933.16277699 -767927.570098488 -353354.513800673
 1011835.41481265 839431.428607823 1077749.49315522
 1299777.46897168 1025476.76553347 385974.007550502
 1379993.86117390 -158439.877214823 -980058.033195224
 285343.858477891 747444.464937176 1499968.55109156
 371704.792423558 -1607235.88978884 410643.813863113
 387469.022008889 1593015.87234745 -449631.168217424
 865227.352877645 576857.581946624 -1344848.30296321
 607116.136206178 1280748.99006970 -938665.020970490
 -58434.6783459535 -887854.324284291 -1448551.03024239
 -65753.9681389726 1092306.77714005 1300977.44803201
 1520190.23525512 632089.645440290 -423655.908447112
 -1437615.26806502 225588.720645507 878847.011796634
 -528536.531310951 -391705.367916639 -1567550.96880933
 1337270.03267121 -717514.306495271 766082.293030028
 -591394.270749577 -1035383.77401464 -1211706.75372872
 1585704.50739934 248460.162831032 560186.364256939
 1302784.22862179 -335077.874620643 1039459.50935765
 270490.187486616 1230011.65848434 1141887.20041257
 477405.661250662 1466061.32684894 716064.257258892
 1176788.55622378 1200611.62705031 -252389.411292087
 -1032676.93199613 -946205.787470534 -963469.232451321
 1691347.80106206 162035.025866304 -55563.1733708152
 494240.054310089 1105631.33193986 -1193023.94215223
 1176898.77113756 38974.2319971486 -1226128.17100626
 1088713.88035158 5662.22446179784 -1305630.12600964
 1138749.07605462 1259669.57879989 80517.6628501720
 -1619235.68068043 276837.127964491 437535.158577875
 821186.850514739 -1342082.54653703 643790.800510822
 1184606.25010123 -118482.820609826 1213536.09482431
 1588580.81240854 379357.820509410 471697.621857239
 -1237701.76697826 773434.943151697 -871718.259950320
 970995.183312146 -1332762.50307557 -413415.607325551
 -459186.476441846 1633343.17992479 -106479.277073438
 843349.203661676 -1114435.43697847 -967882.109293190
 -1126444.51855257 327581.529410562 1230371.11808263
 524190.096821966 1040408.32450788 -1238053.01206713
 269275.587393102 1025157.49023510 -1329113.53098559
 -934510.545243483 -214130.375579145 -1403865.45761446
 336705.065851086 -1524179.66990469 -673428.565238685
 650311.848002280 -1130526.23245958 1090415.03019199
 759641.178955446 1505378.77500033 -216286.899773645
 361969.982711976 1278633.35387153 1060223.78674634
 828544.863216638 -883215.708979896 1193081.48131151
 -805610.214035091 -227245.638686502 -1479645.76934491
 907124.524922362 361190.223152195 -1391641.73514006
 -1144272.85733323 -894890.335894151 -883069.031669489
 -1613010.02928767 -277303.807826075 -459675.150059849
 1507099.93606395 740921.739695950 -263978.708160273
 -86538.4076112839 -200560.458360065 -1685908.24381118
 1284297.05835019 77530.0067555868 -1111112.12933958
 -194424.276379613 -1688748.63979508 -18089.5645205963
 1389370.97845108 11211.4881525369 -979552.237898164
 930977.236646090 1330442.84951889 503193.013674530
 996488.160082840 152467.916310196 -1368855.31788818
 7804.37214747418 841175.434565305 -1477282.29531774
 -266844.307214884 871133.156864941 1435242.53654828
 -369058.401392345 -644450.622977635 -1529208.71397774
 89064.5258976847 -215067.021517413 -1683987.43655713
 -418556.071905582 1511082.70684129 -656840.823758815
 972974.963477307 -1320363.86694932 -447167.730612326
 -1122445.28181598 -526227.414041683 1163271.80746378
 -867024.707868207 1045879.14313648 -1021961.33679223
 417257.254388441 -302824.365721875 -1619936.35281926
 1281241.17181885 -1014951.97723786 -467218.946038391
 238332.688831997 -10332.1931203241 -1683178.77102209
 299216.464860045 1668621.03886601 -127174.430646886
 493417.210726364 -1062823.09561689 1231643.82983976
 -879078.472656087 955068.975208941 -1097754.20359295
 -48337.6946595561 -1380583.35411459 -990784.068108034
 -169025.819314241 -1229227.39481640 1162080.15396445
 1390632.30254827 823126.024649504 -527830.793582567
 -628731.787072474 1554993.93484052 -276929.959617705
 710670.762460693 -1541526.86405709 92962.3298646437
 -734863.917753924 -186128.996962107 1521621.18113321
 1204189.71858691 1174386.31093995 -246462.805158177
 1658914.97993006 -190696.278408279 -318804.044461311
 1171352.72509470 32233.8933283024 -1231622.41354001
 -1144067.88284942 1218825.24623422 -309149.961304443
 224067.723635509 -462672.247108890 -1620409.83920119
 -783420.800272737 1497481.68822578 -183848.968255173
 -1668256.25103511 -119450.558463251 -304388.969847960
 839384.977003882 -1390588.67120043 -501693.141182148
 -557316.720586858 680958.167040159 1454542.55616521
 -61271.6613221861 -1074175.17283732 -1316204.19448455
 -1585290.60581443 -405681.665104619 460734.285368971
 568951.198054195 -1358873.20747813 -848385.608217634
 369287.837676742 -541141.224146073 1568691.38726319
 1523656.74491277 102903.867363047 746914.263997918
 1061951.96035777 -1327351.28076663 19915.1033007726
 819611.222468723 1369282.74316116 -585919.971740482
 -835424.510193097 -1105465.74602811 984891.553485533
 -839915.710966083 -181115.318250250 -1466880.64953065
 1612684.39957549 -209669.299037380 495265.395931338
 -1217403.80689083 1078296.15581308 495182.159741694
 400000.040092927 1079229.68418516 -1251104.81443373
 -850006.699764221 1017066.81579451 -1064454.65030952
 -239608.703205444 782795.318851100 1489905.75478216
 1522819.31035739 349020.358759997 -670228.421639726
 1087911.78679461 554709.363502720 1182685.70051208
 1068028.15897343 -866129.921770514 -999567.311517153
 931614.484854792 -1384797.59138199 -323156.436592852
 -1438625.93107593 893785.652810680 146637.775711790
 -759317.449119031 331410.266369639 1484454.19154926
 -1348303.93606261 259530.670697074 -1002357.38485114
 -1023193.99236358 -1225370.14470589 -584416.001196532
 229531.635200934 1598823.83928676 530167.482377333
 339482.928358205 -1099943.72517215 -1250949.69635384
 1471080.84742502 547079.446069389 653165.537997592
 1193384.57656513 -1205017.70217600 117326.850545553
 1228348.81524748 -760667.044466797 895848.667768315
 -320601.941242525 509006.325823348 -1590008.47656336
 1414624.31863510 -272187.410676657 -902636.167342817
 -890506.787705196 1020356.35729631 1027555.62631712
 533321.508488620 -1444574.59697101 720258.566328418
 -1070339.57323721 -1318909.81237206 69642.6937380114
 -999574.614152554 -340996.727948377 -1332130.55751689
 109517.861622690 -972433.361565062 1390100.42633648
 -1546304.85169930 -3378.09809483385 -706349.696725676
 1556226.02632037 -329708.956209941 599543.625767180
 1309363.48608520 898810.840632963 606387.940239142
 -56604.8977134575 -1115620.96081981 1281477.95819293
 246586.742571147 -1129716.23391061 -1246168.61187681
 1000403.01137200 -1325729.53112085 -362815.414711001
 1333210.43710796 -238032.817715982 1027565.23300304
 1611959.62430038 197065.209813577 502743.943480685
 -1020777.15418997 -1238592.92671300 560269.188319639
 699261.228240573 183771.929519728 -1538590.78789654
 1336746.46412345 1046601.93933579 -87939.0199628285
 -1561581.16332811 640604.380143744 202707.420879181
 -604359.520256739 -589888.188675043 -1475391.98016552
 1063691.77278051 -1325180.51913981 -49562.1247669001
 1265483.32616277 -979443.474670694 573796.506724301
 203970.814840849 1564326.88926322 -633464.513782119
 -339385.990957418 -1663907.97730961 78913.8276051884
 1414069.37002806 -136105.540097861 -933746.806529007
 106363.811315773 1193032.98488301 1206382.62447016
 -1521110.34895326 221786.018736964 725971.258522061
 1308513.09084059 463176.970809291 981458.396882286
 -1497578.92396159 -709670.667438405 -378978.772866722
 -903788.514557202 -511289.189241991 -1346012.51328461
 1648796.58732059 -410244.147144274 56298.7866107294
 689999.791132761 -1504486.20245937 -387842.177755492
 -1395662.33898863 469617.866538007 849462.003245032
 1305936.00195397 486012.345329035 -973818.853272136
 1402668.50054582 -89018.6560589310 956345.521477458
 -1263625.33236117 755337.182040689 850127.496815604
 1499037.27325357 -33558.3663859446 -801099.924754714
 -1408962.88844727 32461.8325977265 -950668.085297248
 -1055014.55052369 409457.308703270 1268577.55400794
 -497241.247506319 -850729.906988870 1385283.28046399
 1091601.24422114 -996413.887710438 -839979.814038785
 626107.579460029 -1166251.96739535 -1066698.48011946
 127554.583221361 -446359.196969042 -1635387.81198234
 1387918.74163592 -753798.712417067 628863.314062879
 1042687.85456306 -1206642.24648659 588911.306514393
 90451.5312728556 -108573.656535314 -1694116.37191692
 784661.247291944 1133049.20462397 -995241.793183571
 1244529.98376899 704219.543300422 919358.447143286
 1652848.11247534 -354263.052719116 180529.240193532
 872723.773004334 1055076.22710807 -1007555.14540122
 1445982.89681155 -584353.777908708 -676508.776271447
 839292.616193841 1338668.37346577 -627339.533494431
 499852.722898580 -1624655.76520597 25316.0027229180
 1382504.14953087 -589428.568042558 794516.355845008
 -73317.3316801405 -313676.628228164 -1669200.86921219
 59046.1092646985 -878221.223378863 1454386.82604995
 -1486206.13745210 -378764.903582896 733299.710086903
 470779.551129982 -826721.918261603 1408863.89836056
 888444.466777720 467268.561257934 -1371979.05272347
 1289593.76461781 -567313.235613796 951369.336775297
 -167722.709867401 -443148.519995574 -1632632.37803875
 -9162.07047244053 -829356.493875830 -1483942.00106697
 1279415.59102391 -999659.084631687 -503763.297549834
 -696129.654707729 1550916.19028261 7904.08475272835
 939438.314027705 1380645.23385133 -318236.378153719
 1624992.62080699 -331011.688745663 373938.824189977
 726262.609825620 1260035.16913748 -880257.913401506
 930172.604249848 1327762.04729117 -511690.211042000
 676534.456750074 541795.462674580 1462449.59073984
 943985.388323049 749059.151830382 1199083.80595008
 840464.750652840 -1126726.79134251 956088.772332918
 1176552.64076074 749161.303349941 -971844.239105186
 1598499.36375458 -577538.835044677 35336.6395042777
 1587995.56839443 -187120.599882721 -577283.254442041
 -22684.2870539779 1098859.60178177 -1296916.72774040
 -1214542.38819469 -1063497.94362088 532784.113119485
 -391106.679414506 1000240.04407510 1317784.28414745
 945499.070181549 -488766.977860663 -1325570.95232160
 1307033.20163290 912815.331704291 590281.610788308
 454334.065449681 -1275418.56311094 1028050.60470970
 -227468.992047118 955186.583433310 -1387759.50671796
 1138831.41739119 1260785.70492180 -59011.9397038503
 -692815.097390067 -1496377.02021112 413355.844536492
 1612036.10403226 -118412.897643753 526609.898281543
 738117.351655532 1425970.27303652 558382.982907935
 -1369340.27656136 -867519.894311747 -512168.370714349
 860091.261571620 1460505.21941114 -131024.905422462
 -668876.154564663 972758.008243523 -1223252.44624848
 1122295.22838671 251689.228026593 1251841.02538453
 -1265466.71408948 -65719.4341472407 1133258.55457038
 -100878.947200316 410297.885279529 -1646656.94160833
 -373589.059212064 1576585.16251003 514597.357348705
 -709390.568135981 1487060.58981504 418826.723190710
 292533.069161044 -1550496.22392633 -632760.510017351
 1293798.97930173 -617950.530768314 913357.182421512
 -606088.229469440 419865.592593984 1531786.51980434
 -202096.936822157 1274438.73260218 1106780.35082416
 -673189.341734667 1484471.76163202 482866.129576288
 -1366946.32691683 1004179.65098190 -114372.059011233
 74174.5154080925 -1698380.47641347 -1377.89750000896
 -61286.1034370576 -1428687.18266632 919291.546578383
 957319.361777692 -350093.331265153 1360505.16315419
 1354066.04360819 1012182.25990796 178863.697476225
 1128666.15237427 1200828.90865538 -417280.060178026
 1578599.01831215 33072.0932551923 -630024.901120287
 -1119525.32064490 -1240829.77828623 -311455.482778960
 512076.637890462 -1565287.40490140 -421488.857484791
 1445587.54415896 -741605.017991514 -500298.560324015
 -938373.743034723 -1249208.42909771 670024.640632136
 956125.103962880 -529768.240743709 -1301987.09543194
 424869.725060298 403183.348875683 -1595910.05508349
 1606660.99738487 36061.1640044650 554382.568208002
 1302434.53797518 -746364.858949325 797874.533755110
 1561881.66019051 -101960.884768485 -663422.683918610
 -36856.2430262584 1540382.41277396 718236.479000233
 -295378.945816065 1210576.97348028 1156397.28019739
 1062278.17636975 647051.536106390 1158831.04274563
 -528988.715809608 1494016.72380040 614886.141940776
 -84284.7293400650 1458626.60559122 869082.567919477
 976143.236311425 1274910.63605236 558343.310413973
 1436065.25135364 -865862.149349783 -279283.605279603
 -368675.134595963 -1379788.28941706 922097.023917874
 305618.358067778 1667178.24280435 130820.969006356
 629222.324081125 1575280.02463648 112125.424678105
 1111787.27008934 -137941.057702819 1278632.60190999
 -1567556.12833706 355149.275767382 553747.935828955