# OOMMF OVF 2.0
#
# Segment count: 1
#
# Begin: Segment
# Begin: Header
#
# Title: Oxs_TimeDriver::Magnetization
# Desc: Oxs vector field output
# Desc:  MIF source file: /home/martin/PhD/repos/ubermag/oommfc/docs/ipynb/thetaevolve/drive-1/thetaevolve.mif
# Desc:  Iteration: 1274, State id: 2557
# Desc:  Stage: 24, Stage iteration: 50
# Desc:  Stage simulation time: 1e-11 s
# Desc:  Total simulation time: 2.5e-10 s
# meshunit: m
# meshtype: rectangular
# xbase: 5.0000000000000003e-10
# ybase: 5.0000000000000003e-10
# zbase: 5.0000000000000003e-10
# xnodes: 100
# ynodes: 100
# znodes: 1
# xstepsize: 1.0000000000000001e-09
# ystepsize: 1.0000000000000001e-09
# zstepsize: 1.0000000000000001e-09
# xmin: 0
# ymin: 0
# zmin: 0
# xmax: 1.0000000000000001e-07
# ymax: 1.0000000000000001e-07
# zmax: 1.0000000000000001e-09
# valuedim: 3
# valuelabels: Magnetization_x Magnetization_y Magnetization_z
# valueunits: A/m A/m A/m
#
# End: Header
#
# Begin: Data Text
 977152.258741244 -1353242.47393514 -322348.057190945
 -1124131.33614115 -139353.216038531 1267639.31001103
 59334.1608385869 1496219.71558960 804863.976109348
 1271843.01956437 1104744.96192896 227933.987544578
 -906743.076691874 -88587.9125908991 -1435259.27086856
 -1318002.96784730 -896823.499532785 -590403.072003752
 1270803.43648631 -487982.136500151 1018298.61056143
 1256773.16663834 299581.972166042 -1104885.44635674
 1434863.94922991 498989.280770515 763004.026776049
 -529178.077944295 -787495.941839058 -1410610.04654376
 713741.180650334 457285.558908278 -1473588.62802948
 485596.747461378 135835.003607065 -1623497.65957639
 -298283.272647739 -1329252.35038763 1016914.58748880
 403124.006885084 1233483.62725282 -1098184.49104517
 -1066668.64208892 1323668.53609558 10936.8429982290
 964631.527169387 390625.971326305 -1344208.82578424
 -704635.738209584 1169429.12051341 -1012879.06905665
 1372110.52362808 -1003647.47636203 -2110.48364424774
 -854230.301669261 1468075.32672140 -71031.1676794004
 -1414516.55373114 -933666.354508730 -131947.177608914
 1547887.13479579 425789.504777968 -559239.408084423
 373622.235553791 1445279.66576040 -813371.448256755
 1372798.59733036 -228254.254303684 -976383.124884926
 -124533.038945309 721026.509837301 1534474.59878712
 -351652.420355990 -1099190.08149425 1248247.46745284
 -5736.31484832081 -1183435.71828958 1220429.02102842
 -301815.195707232 641026.725584039 -1545313.01836463
 1379684.47435210 -467884.071369684 -876102.303952176
 284760.644863196 -1655875.04143753 258822.762293728
 1104821.22587349 -825562.943285036 993889.272270284
 465966.134132978 -20331.4274672594 -1634766.70962505
 -223512.898142650 -1680239.05036330 -129764.085933375
 -1585676.18140897 -365318.591093071 -492111.140611601
 -352451.876558033 -676474.983434598 1519262.73945552
 -1547310.98216513 -133743.815604132 691332.999544245
 254432.867910257 -668826.271043809 1542055.55505909
 565107.681895572 7092.99882522193 -1603310.01282668
 -1371252.59822794 521249.813676915 859048.859841460
 1228927.54975031 1140285.26783194 -281933.654305649
 1508634.03247366 402191.504429449 672506.765636633
 254007.412334994 -1675108.99457703 -139606.915179741
 1651287.01475767 11146.2338534393 403889.782445160
 1457551.72793746 859103.225944937 -165784.823061474
 538811.374909287 -1539773.99592791 -478307.791837600
 10849.7235437958 -1512105.78400056 -776800.091073026
 -429177.812182322 -1640186.75281545 124875.223399587
 1406474.00201195 -952502.435669222 -67601.7137999089
 -821974.046315535 502360.897688099 1400711.31774455
 -517821.942700916 692446.402729105 -1463686.58359806
 344673.252267822 640131.724547936 -1536695.06552159
 -1294378.17265749 -870534.256449481 -675836.706975728
 -657862.945357606 -1250575.27581477 945133.760187532
 -216518.143331820 95270.6391407731 -1683461.73075774
 38878.2107220226 -358923.786781808 1661223.10362373
 -1358040.56705896 -840235.491902912 582863.737393960
 358976.962136046 863506.241863541 -1419680.42563046
 1366544.48140704 -271924.048255179 -973967.911338194
 197755.891298336 -1687515.08914996 -56439.6256898036
 937284.194359908 447442.479748514 -1345843.06897929
 -534234.382334363 -1592160.07316028 263855.881431649
 -1146467.31035896 -1176583.27177981 437337.982395997
 -35968.0848004032 1001929.18020052 1372896.28695634
 -215057.489862016 -1657130.22219233 312521.523660450
 -240593.701626003 -1672409.21021585 187515.610878357
 -537901.851589527 -1362052.47204391 -863408.745297172
 1383539.05973727 -689013.393460419 707870.195596248
 -1263362.04464611 1003636.03843151 -535379.348228063
 -280969.476158940 59660.3386859315 -1675558.65234699
 390583.350317283 -515157.854156561 -1572277.65733529
 -1417515.46544040 -938058.824157144 -26373.2375371090
 -1437994.93842106 344385.505592179 -838790.307891924
 -255001.330260838 334540.764389009 1647135.93808381
 929786.529376109 -716558.631205631 -1229650.65682715
 403989.425818977 -1620768.38814312 -316073.370947948
 510020.143313923 -772998.839973703 -1425605.92269160
 -737976.130615440 -1401576.74617911 617230.795741637
 448545.678117816 1562345.80614143 -497877.853166923
 1684672.21750552 19094.1028751772 226969.017269833
 545644.920860554 402552.171101512 1558917.37108820
 1449685.73277186 403015.020199559 -791195.405504391
 891396.202873155 -1049932.12156053 -996521.625263965
 -1661378.53124495 342769.335836377 -111043.047187388
 1308925.32984513 947159.368441248 528775.577786824
 -94872.5265914809 1014446.31000713 1360844.54946590
 585721.910256228 -1243631.39677025 1000155.38433439
 -175568.501901396 -1563489.62012066 643953.343740887
 1361831.56567335 -719537.715692427 -719500.008639193
 1101008.08646584 1293879.97895075 60463.1590907474
 950341.575041694 -741858.479002645 -1198539.48115160
 -871574.415012140 947542.731803213 1110189.53809841
 -847086.436769216 1413631.72703452 417240.828494802
 -15080.5128066642 222386.343726174 -1685323.97249241
 -1199577.88966658 246591.935652432 1179069.67728555
 -686548.406592910 1164593.30152169 -1030715.15340347
 -149096.447729224 -789592.171523247 1498103.61856039
 1554846.26890951 676323.194221763 -122637.747108495
 -599760.506170996 1590163.66014124 40827.3095334300
 -593249.866671117 668498.731735111 1446085.76556277
 -784236.275457364 1084043.61668898 1048724.41631376
 -635088.652817163 716647.703645622 -1404663.11687975
 -652644.831040226 -505630.753613684 1486066.03672802
 544997.832282920 -1595361.24793317 218631.771250277
 -387801.392441915 -152796.648453604 -1648108.99646882
 1267785.04749211 327774.740436754 1084105.52663799
 715635.010385263 990708.805109171 -1181677.87293748
 -956157.243588292 1358510.55110688 360849.564313058
 213735.635192120 -1530270.47638986 -708935.361890330
 -355937.096779815 89732.7983231020 -1659896.62570928
 -1663224.37427567 166421.739041025 309820.085839962
 924022.827818116 -1426919.99136721 -9008.43535921859
 1148287.76098682 755765.359504521 1000126.96161082
 1131030.16354014 1236527.00867576 285957.559749231
 1305546.14315442 1088440.82307742 -29083.3758902075
 985667.788457253 1020351.82824596 -936664.912011179
 -1262882.27274930 -474919.400490794 -1034204.97398389
 760005.197383107 77582.6412168687 1518674.76232816
 -212838.070315566 -861203.144872597 -1450182.43648373
 -802084.236347968 1430062.13839522 448980.131108931
 810322.059252028 -1284775.54608745 -763367.510747772
 73997.4635061692 -1148236.88346564 -1251429.75625633
 -222468.385795128 1444169.64791005 -868839.366843531
 -398235.132422702 255669.549437366 1632801.84370142
 688219.875275030 1138102.72242654 1058808.57404997
 -1672846.42608377 -279398.018116362 -116282.338346807
 502113.336439817 -1508752.01423525 -601289.910866913
 -802316.219954817 84006.7194191893 1496406.21299493
 -980113.704642276 1383685.78091816 -121617.373994396
 -191520.173283530 1687749.85117354 -69429.5548677197
 -650570.861442845 -678508.076557503 -1416468.97046414
 76685.3969036940 -1589145.12726292 -598946.670746424
 -1575661.69716582 547474.020960116 327967.090511048
 30265.3733174269 -1567956.35999912 656198.796338622
 158783.930492732 -1441017.67878526 -887837.661312939
 -995204.082788990 -1190983.05195366 693634.055939629
 53892.2226596331 1462784.06971521 864498.926386970
 -1002852.36193797 -1363705.53463813 -156825.874627735
 -579186.490676317 -283496.942016938 -1572950.25124290
 577884.284055706 -1592380.33669890 -142739.684517331
 -938806.018732107 -652416.915693952 -1258171.46180827
 -1205147.91533755 185663.081054594 -1184545.36531569
 -156576.532286833 1640176.14330724 418695.603586703
 -128940.150414235 -1529759.25152412 730213.030551709
 -382059.130377501 1143335.65564896 -1198671.93152127
 -938114.653556202 201130.486827675 -1403384.27526162
 313459.824784488 -8631.10581069954 1670828.66933105
 -791554.851862981 169317.500650188 1494915.54960999
 1410392.24519358 911757.221862894 -263614.269489868
 737528.187487560 -107797.260991412 -1527884.78727424
 -1005863.41049474 -1005494.66988263 -931246.083624253
 1145356.86841663 444094.582335803 1175133.03328212
 1231880.14980578 -1150633.84550526 220256.782170880
 -75001.9048571010 1240619.21860409 -1159844.24329217
 1567508.93497735 298229.058444280 586493.962002680
 532384.251326478 900451.561566983 -1340057.45929461
 -656214.634515324 937090.069234527 1257475.46918019
 -1051669.81261696 -376677.031526802 1281446.45582653
 1441894.25564178 -16821.8619214644 -900365.470522244
 937919.084177590 1357734.10559109 -408492.215409577
 1535599.36260920 565707.285669109 -460336.686019163
 1113900.46529151 -1278542.89305437 120639.230947122
 579121.218205615 1464260.71860407 -640748.907589510
 862861.889498658 1122870.12451250 940548.798908435
 1192645.18413506 -741231.489076224 958213.621465110
 406033.179788155 -63984.1210306153 -1649558.45278882
 706925.198697721 -963171.818932945 -1209362.15033363
 -1219685.23498299 1180218.69440668 -97220.1673393609
 -632033.570277266 -1282680.11760633 919383.098572066
 -1283871.44518384 -495011.630811457 998317.383201823
 259115.084647695 -1607408.84030308 -488974.634335497
 -256858.555049481 1680162.91843190 32806.2528228739
 -313716.147502493 -172065.444015360 -1661919.27053392
 524973.557989998 322078.830458067 1584508.75364641
 1603563.90342154 -441031.869331797 -352240.965643094
 1090887.92280218 -642217.086834808 -1134689.71673395
 -920097.834288897 902983.363351995 -1108170.12270066
 -453641.458853499 -1602959.15357465 -338720.207221984
 -470045.008263026 866793.882478534 1384819.86391906
 996071.296782916 861047.601257639 -1075378.53804773
 -324287.971204506 -1449862.94797983 826277.643293883
 1209302.65540398 1194275.08240141 35973.8125306866
 971467.130173530 799396.509894910 1143335.83647161
 -1392932.11449715 -786727.110707031 -575152.655980192
 37067.7985415877 -768951.978385701 -1515697.47418408
 544845.438674622 -1537259.12054291 479560.052822477
 305194.761602916 -1504892.03111494 -729490.323566311
 164733.402502073 1159947.17990419 -1231822.00253625
 459119.246140603 1626509.26174973 183513.321766080
 1517779.11725986 -327656.257394487 692089.537704568
 965418.312153718 -1212716.35430112 698059.113950145
 904125.862081826 -1254582.56458484 706101.277547712
 1276484.70188958 -608795.711594610 943374.044261285
 -1383707.02060314 -323938.371871821 932962.385288176
 -183675.030959431 1663106.28711959 300567.730711991
 -4217.31447166061 -1352168.99749568 1030350.04560109
 21137.3755573441 928537.900547334 -1423857.63986492
 -440058.598130162 -177774.902579750 1632404.51917546
 507294.684265720 -1565299.74980935 427187.074432897
 435537.318487915 -753175.915754752 1460490.76824585
 1279048.30011130 -209344.225552897 -1100095.65093680
 1673437.20877971 -209060.277420824 214246.840528155
 -162491.865820447 -797504.338648752 1492509.03628039
 -211757.695808273 1191108.90887298 1194327.52855713
 1081528.38619655 -1277880.05247697 -295497.751823128
 772549.475545410 1139128.39825357 -997774.423467936
 -748589.002848265 -1413525.73523347 -575812.035865270
 1677451.35721607 -274607.360383576 27344.8678387500
 1013571.84602390 -1352324.53445255 -184093.635048579
 -1287566.16842210 937459.507587401 -594426.642714484
 1547706.61835012 -279647.631730965 -645291.736800107
 733278.338151065 -1518698.01664341 214147.643091844
 -1556913.88770279 -432878.891992800 -527858.893214153
 -965897.563521821 1230992.73872430 664604.223572687
 -557502.337168945 -1590336.28447244 223655.195203630
 -655109.282704402 -1041400.41255375 -1173165.37983671
 387472.743903458 1655171.03231505 -16544.6824402618
 521037.292504456 1570605.97341546 389508.685514600
 501314.140957310 -1128966.06680607 -1167955.37246792
 -1496302.95030042 477277.555680924 650602.502120525
 15830.7855604207 -1435786.83482984 910090.957628877
 -479033.585083016 -1516340.22365294 601031.738342208
 -460053.089952086 1461881.79236037 -735698.837562467
 -1656879.20167933 -322730.729249858 201484.955866004
 898213.380001503 730958.464498460 1244553.11142768
 1404320.27885569 701707.203136283 -652297.137400839
 1683602.79199572 223330.272538295 -74868.0716473847
 -318701.342331255 -1194357.00075099 1167022.19736959
 994926.425103218 1170816.17743196 -727537.550436361
 857611.910008325 -1174569.70302877 -880277.129396633
 -75201.9165976067 -958873.352586358 -1401751.24948753
 -1211272.20475681 -480534.025111718 -1091744.79467205
 -94685.7988841420 178835.608788724 -1687913.63064549
 574477.850650239 -123311.289281194 1595233.37635848
 154183.045501440 1558016.81560366 -662428.253304570
 -1603251.89784428 520643.549763959 -220258.135259269
 650022.011664804 1560528.28512172 -179507.258032395
 -640140.520267564 -638128.739540382 1439795.75846166
 -702566.186081978 -1440531.42003675 566806.829582300
 80236.3536024708 -530316.984265042 -1613172.65776501
 1124182.06718127 -1220586.04235192 369302.576546290
 -1430800.86546273 901557.059148919 -173215.912923294
 -349649.107372120 1661412.61992094 86334.2810320504
 -1684345.27519966 -43675.6605960367 225994.315380009
 -735173.636537303 -993617.121429383 -1167152.40656176
 1487070.74429568 -6004.92231228603 -823762.430782037
 163638.384788874 -1431439.84641764 902331.671344599
 1485850.15179769 -220557.572438096 795992.263557251
 828764.573661042 -1289609.57514891 734885.314269302
 1517860.50026264 729933.649256337 230860.064597115
 889963.767419702 1446542.20602826 -74027.9599815749
 1611550.58957849 220060.858015238 -494447.081090388
 -1322378.15226643 248328.082105036 -1039061.68539046
 316491.443440242 1668689.72056315 72854.5311973277
 1008664.36186313 534471.522234259 -1259736.63796361
 -1391385.03210774 -416712.603092950 -883401.550174126
 52358.5881786879 -242046.431841823 -1681865.66142382
 450276.621195900 -791418.381096812 1435586.26019703
 -749526.027189477 -1304578.13510525 791382.729133552
 422511.665167277 -661456.304685987 1507965.33441215
 -1074692.57414962 -1269426.97102525 351555.168218766
 -1448672.52161255 -460023.751086627 -761397.447829278
 -277911.275136055 872861.981197252 1432088.43474579
 -1368448.00329502 -994789.315461227 166566.143384694
 472465.039471953 -680670.500650457 1484407.10589145
 165798.808114735 -575492.515611025 -1591011.97974856
 1203112.81660318 -1163694.79012415 297210.339596536
 -206389.866754896 1484819.35658217 801694.892848781
 -1107311.21338524 1289367.69247676 -37320.6418551237
 147268.350008226 -223960.138864291 1678735.80091858
 1372926.90844949 1000333.67187486 66364.5158852759
 -510679.080226134 1609885.41896737 -193586.711361174
 1141664.66469417 -641551.434339952 -1083980.41978861
 -1540378.63013846 330865.831880957 -638562.038572986
 671911.727333358 -1550413.94796496 186416.792772553
 523412.276649501 680593.329034242 -1467253.32138887
 238319.471653461 -942511.601136101 -1394588.00767635
 291255.976561016 1291127.32537223 1066845.90536527
 668641.678332385 568766.813437886 -1455823.69053693
 -317421.119142430 731992.001860237 1501143.41164827
 1112390.44801144 -253196.129873356 -1260348.84495923
 -98589.5160967802 -1652912.64781871 384915.427070350
 -1527500.03673567 -484733.221712920 567254.212448307
 932221.597306400 -528461.629577301 -1319731.48768225
 -541742.567339163 -1574244.29470479 -343903.898381800
 -606910.068238641 675034.568254775 1437354.68856217
 -105911.458940988 1055978.68068983 -1328040.58251002
 256387.550467585 1104497.47767792 1266629.67980715
 -353237.042951814 1343066.55923424 980507.934161349
 674268.632801322 1314458.95076584 841165.547066572
 1267333.64073377 -520887.502695467 1006251.28700548
 -126340.029995544 -714854.473808871 1537212.17731846
 1698151.69132239 49537.3448092327 61861.8196317616
 1342095.59709684 1029742.43557558 -168552.438808052
 -232259.575005074 -1325330.10847681 1039016.64730808
 -1384672.85202659 -124235.156801845 978389.860267869
 1363839.84356477 974048.536154717 284904.072136697
 -1054689.89657213 -364385.547772156 1282517.98998823
 -1077101.39516851 -1104267.72407241 -714454.601845351
 1041891.13881504 248966.607651339 1320029.72812482
 371077.937615534 -1488205.00842668 733175.979631593
 -568817.836350469 1451169.08011864 -678641.709561966
 1667698.07540806 -132364.735648173 -302097.179789974
 -1070079.47690410 207988.351596345 1304481.03041359
 756328.424672272 -1309299.74723800 776982.294467046
 -1683994.87630074 8073.17012908993 232585.641252659
 -1333705.85403127 475637.057326878 -940743.368097886
 848324.724052692 -875930.863153680 -1184521.12076390
 1293714.01148042 -62145.5454235872 -1101109.43492609
 1068707.73855881 1309082.57054083 -184842.075974946
 208532.975799803 907184.142388792 -1422508.67477228
 908836.596152762 404786.502361015 1378464.33722451
 1011106.33033415 1306660.42396879 400377.977905758
 1029175.77953455 -886417.922168737 1022281.99733612
 1611257.37311865 -28000.6410611510 541355.374657855
 197192.988157714 1684251.63938201 120047.243452147
 -1402498.42549442 -957108.471514412 83315.9062905329
 -429476.962543171 948581.008965475 -1343779.59802742
 -470834.137695176 711727.346039544 1470292.28375869
 1368010.64309149 176774.950640617 993628.450284322
 220267.840522960 -200221.605844410 1673736.35527954
 -1012607.05165056 -959706.749294091 -971385.564184962
 1372358.23905201 -874316.037553613 -492142.591311325
 -198081.449807124 -1141782.49215946 1243823.33144239
 -103493.294018356 1439580.34031687 -898274.780825115
 794228.681911598 -1074457.31559878 -1051067.20897630
 -1529762.50315789 446402.420480885 -592073.950550872
 -796574.470580794 1344497.70554568 -669174.889398383
 -389150.413576346 1092262.87298249 1243190.96357615
 1446687.27947014 -235072.541911452 -861299.492312968
 1525097.11644972 -482969.939570683 575168.516930340
 1647383.82797831 411211.426127017 -83855.1509336257
 -249068.711256039 -621437.343187800 1562619.72519386
 595762.122423439 -605542.569328342 -1472543.95187945
 1046485.89888038 -416073.820723946 1273479.42235150
 -1598592.12377243 459525.549436464 351197.225541266
 -127048.363949089 -836046.521781904 -1474749.10633444
 499388.001210283 -1294177.53363849 982708.571079235
 -676013.956558366 -1228560.44965375 -961064.176881482
 847781.657883156 -1415985.39385425 -407739.653392112
 -1486446.48530041 337560.439133276 752681.736373493
 -257416.214945000 -116974.421866923 1676321.53148264
 -841963.211564613 378507.556090892 1427525.82475901
 1479332.81375964 717200.815272867 -432663.167725101
 752587.422582536 1014301.06353405 -1137895.21656621
 1137317.54436655 1114187.46013372 595898.571031021
 29791.6759506029 -1699712.56280741 9468.89004647936
 -263359.156812971 -876055.117190301 -1432888.47652825
 -258921.650903082 -1557883.98859016 -629251.187355281
 -50058.7386314358 -1669784.43982899 315141.313051193
 -1306474.59954500 1078426.21669668 -141848.566735836
 271333.413772312 -1657266.36622570 -264284.638122829
 -1265071.52833600 105377.831617309 1130703.11788605
 1399111.72603915 -25153.5943632022 965325.683254284
 -495430.160150599 -1622133.17896072 -115034.369333398
 317110.963160239 -1666729.32930608 -107023.267911667
 441802.312798533 -243794.037849430 -1623383.86819475
 -1159300.18686190 1228061.93510727 -194645.730193463
 -542782.154549720 -1387245.60130341 -819107.547497102
 -1454151.96029001 -655200.798041740 588348.528195832
 -1347312.01238395 296201.452236938 993486.306387074
 -742078.979680426 -1051638.07779025 1110574.68963509
 -223317.832393751 -406878.344764178 1635414.06325643
 -218128.873722473 -1176866.92274840 -1207229.90378356
 834127.117846326 474999.914699705 1403070.57281829
 -1664585.59895317 280443.521376475 -201261.558862289
 1694002.95728374 -76536.6711640876 120399.828409680
 770509.929892021 1511046.56186564 -114248.570283450
 1153005.53183400 1011905.48938401 -732547.284558969
 -934603.367611860 65026.8358096063 1418551.39345501
 -1437311.51732779 -96915.6133784353 -902631.135093596
 -538871.822710163 768802.527851938 1417236.68872122
 -220596.355663930 -1215336.95115862 -1168029.68413318
 4873.63634276797 -1456675.55749017 876397.494222514
 -1133667.81684363 906160.264736725 -885251.860017964
 -200278.382910670 1313555.08466172 1060406.34140787
 -1070789.45537205 -818003.206416729 1036475.13069826
 621761.523584611 1385958.84307033 763236.983580390
 -1051170.83376063 1230832.35674820 -519703.365231214
 -1195727.80707073 1057881.23556767 584056.763364360
 1146419.99197392 -1250254.40407556 -112183.452844796
 -684668.477143218 1529160.18235305 -287920.497902436
 374740.320341995 -1556703.06867314 -571178.823393863
 -175742.445420247 -1453871.29145026 863349.790510458
 1145349.16780696 1256247.21687336 -4267.77481249128
 -104490.296631235 1652526.09700061 -385018.540646855
 -27546.9214017498 69039.5182537910 1698374.13782728
 -293615.374468038 945204.678151463 1382164.29134766
 -1448508.45037959 -780181.860211948 -427948.050790213
 369128.281688481 834249.005414837 1434493.95558924
 1528498.99683491 -638131.464972046 -382725.815809828
 953116.270146333 1395775.47722866 -182702.470562001
 103151.546462237 70729.0400797872 -1695392.92240821
 -9280.42229705504 -1286533.62387908 -1111190.85146996
 -834019.670778480 -627139.829390495 1342053.21174185
 1155056.90915164 36592.2282530115 1246797.71633274
 567379.719072250 920013.525316230 1312118.65607524
 307.598592877140 339594.929408235 -1665735.63007559
 -598534.307254466 1578029.98666142 -203906.949947191
 -1233061.99459220 1007100.94664665 596075.331443700
 1310153.34673922 963591.438942919 -494964.389450336
 -445737.785595873 854045.949841585 1400686.73944293
 -1307996.12906566 -1084378.35211068 -57181.4290043003
 -1069180.30390149 -1076521.34506555 -766782.414617970
 1484996.70575191 -760531.149474459 -326155.108169450
 58210.1690586933 533870.289363050 1612945.78035146
 -700377.985793259 -1337017.51787171 -782211.502037877
 334991.572639565 159300.390976821 1659037.07966251
 607494.805467037 1426364.15904457 697449.171713361
 1014134.48384153 -788800.808519202 -1113249.53768817
 79174.5910940209 1693485.27017964 -125853.183550068
 -1359749.74312916 762384.355463633 678122.946525542
 -311293.351054292 1661909.48458865 176503.015905313
 -165336.166492294 1629014.83381024 -457137.422747068
 -1111782.98940495 -1243202.35325791 -329221.040220370
 1446889.06436205 -147274.365632634 880239.908580049
 1473577.36303376 -465402.799629415 -708498.404551186
 1589691.88317174 -601562.442547499 -31659.8214489444
 -99702.0362295941 309708.983595385 1668574.19656783
 350397.005685209 -781634.510458411 1468424.13166880
 -1667389.01810425 -292915.459089977 -154965.790197236
 -234228.044919379 647789.362235019 1554189.87422657
 -746568.026786031 848947.627296987 1269615.73221492
 -1414682.46895456 921635.411788886 -198145.602447713
 1666666.59555592 -152145.591081294 -298452.975144419
 -1394406.26386290 -88223.3182268863 -968425.432039525
 1094839.93836303 -849023.928508106 -985131.401482005
 -1297343.01373219 -961717.979728509 531036.375578153
 -293787.308141056 941325.267625145 1384772.81822893
 -968745.223284242 635325.958415767 -1244143.72920778
 -658589.469245581 1556977.59287942 179110.821198006
 -1440621.39239278 -194529.899203194 881344.496832132
 -837870.467555083 -565565.437302949 1366787.77274577
 932285.522744490 1091552.49978946 -910690.311952649
 1571857.42052989 -8780.94467849629 647446.634507942
 379797.984734101 357210.493959795 1618071.12136547
 1461479.07359410 127356.864313017 858987.279625779
 -883275.514431125 -384181.661780513 -1400795.77967597
 735406.386524878 -168187.305874024 -1523446.90645958
 23499.9381224177 -1236840.60626373 -1166050.19943629
 445834.554114148 -1440131.56925312 785654.258308559
 1325373.83129696 1012017.76487069 330460.664677900
 -356819.594027248 1105940.23354948 1240796.50915642
 -506303.488032115 -1612205.62061915 -185606.613164903
 1187027.47756594 1185757.28707330 273761.618303205
 1545238.21382485 707614.821278448 38988.8091952004
 -658365.361144752 527140.982112027 1476034.36146409
 1412893.75414583 415435.513506796 -849202.316066708
 -1003564.87600842 1371625.27876911 38750.9262311562
 30659.6024084961 -1469284.49874256 -854554.299348486
 1076167.19805974 -368328.246459525 1263407.48164648
 1675703.02881812 -108509.071122782 265037.998584821
 1654959.19253281 99236.0347874840 -375848.746772952
 1038229.55088451 1136620.26027756 -721230.742270961
 1335487.51180822 -849876.043501179 619825.633938352
 1019401.15459821 -1135279.30916177 -749641.365049328
 1693601.37869970 -131610.231150180 -66280.5938649237
 -842281.849293991 -1395601.18285426 -482554.271316368
 -913090.458161531 -1425071.81598056 159487.098262676
 -1137631.71332434 413076.224950616 -1193801.54013106
 -1136283.21468681 -157911.171532531 -1254561.48431483
 -242495.498666028 1498309.94300536 -765678.292638610
 -462473.523583487 816222.779936209 -1417708.93116235
 105667.222922091 -1692209.68884089 123534.638838510
 -1071843.37217645 -785749.621211297 -1060070.43081473
 1607901.32733374 -162674.878690020 -527437.394769830
 486929.835492806 -1571401.76205412 -428480.848487035
 1177703.28687869 650824.768925889 -1038962.02443962
 -1278315.34415268 1108179.02715140 166880.570126053
 355693.997911092 -1444307.98397270 -823077.291196112
 1510572.57207998 -13159.5288353158 -779741.836302565
 -674747.855375704 1336333.99254508 -805559.924545904
 -1658978.21147041 370040.196456017 -29352.1187177142
 1480072.82422746 187642.889800533 814969.067444070
 1257862.35612980 -555324.970368916 999698.189613418
 -1497167.04579330 653690.237428245 470297.682836708
 -546344.647972478 -315599.720827908 -1578576.68228223
 -839565.587674377 -255138.133275193 1456033.70735084
 -1182902.25367199 553679.269144455 1088201.04997991
 417744.040807706 1529243.62273923 613924.961767358
 809601.420855911 1463116.05960673 -306328.149978051
 -1649446.58603833 410875.935499212 -22515.0046448630
 -433120.665300608 -1186044.81005290 -1138290.03238900
 287628.724136249 -873329.447589288 1429882.99976786
 143992.584423975 -692362.230157001 -1545930.35997193
 -1432256.82031732 -106928.358308458 -909509.058142894
 -921358.628502949 971655.248088641 -1047370.20988043
 -771291.424073374 1233200.34311831 879958.210873528
 -1400450.04369689 -442906.429146091 855905.117481167
 -122971.815746144 1676458.12095070 -253704.752085061
 510597.601092178 1567543.03952350 414848.055317046
 500402.428259480 838541.173047456 1391562.47107207
 -61673.1294867502 487042.870790644 1627570.47992132
 -233357.172047580 1623876.11236729 -445612.838613127
 1619324.10470130 423152.196728576 -297878.603355668
 64966.7286680686 -1225310.26866127 -1176602.76630621
 141881.432066846 -1569905.83087570 -636604.540839231
 367190.175991043 -1048987.44143139 1286389.02450810
 1362435.93846124 -954575.096097701 350078.133420666
 -1161240.98425956 925016.215693964 828169.292584019
 439659.553152481 -876933.238477320 1388411.88866108
 425835.491284343 1147792.34234003 1179507.04670561
 -237806.285767211 1639046.38265213 -383373.350618647
 -1204328.41305693 -916770.491840534 774031.613562553
 -492641.106745690 -790025.489603673 1422379.85985490
 -277297.292156445 1645721.95543934 -323582.226254167
 -173496.332468093 -1690829.04664387 -31561.9651715005
 1385666.94007010 -178833.620011293 -968475.950940666
 -964115.782917388 1233324.21610591 662866.604300098
 -378372.799015253 693780.574199128 1505158.64274477
 519281.520401836 1153729.65984080 -1135453.46649380
 -1191529.46950514 -731824.839572752 966793.632315145
 -1171928.15239266 738634.521888923 -985395.072396572
 655542.026970227 -1565444.54247791 98224.4129628798
 -1105134.56580447 -318952.955366143 1251777.37786212
 1116290.59068046 1180683.50000323 499881.776001498
 173771.854694336 665067.756663735 -1554827.39285181
 545916.439070217 913357.448888174 1325802.93110001
 -1616216.00004650 -484845.274074731 -206811.270005026
 1139685.26503451 1197790.19993665 395494.795918930
 1393957.55536995 -721543.677571083 -652883.645977015
 -840533.901729211 -1005005.79467956 1083266.40892459
 -1247895.46523724 1146087.32160469 -138711.063355885
 -599872.235080494 -847344.318442139 -1346165.26013092
 332171.413630434 516572.022852415 -1585186.26576593
 -919607.506873695 508223.215742828 1336424.78137812
 1517053.70397321 274096.037485418 716532.917245219
 -153068.746374583 -1461027.36136164 -855551.873492175
 494891.522407123 878815.217998280 -1368490.47993188
 1509280.69064569 771768.086717389 -128241.245972792
 1532226.55938063 -547107.919781723 492904.346542718
 726590.846299694 823742.695101243 -1297502.87642873
 -571151.904002795 -1334236.19813829 885211.426796703
 -742661.971049042 -1356146.01430421 706626.623220747
 -974924.546074738 1373606.32885971 -229625.309531690
 1446294.17867688 -548325.609997122 705387.960023888
 641604.328575211 1510175.67727831 -444649.647824601
 -1060500.52606098 834182.361504102 -1034155.89829572
 -16171.9339006731 1327883.00889929 -1061350.64103739
 -1145119.81292248 -356120.506690432 -1204939.33406082
 173079.362664352 -337417.888096677 -1657164.05434467
 1377877.62895420 -136817.978230424 -986272.822529591
 -395230.385464083 1126221.33296859 -1210544.69210037
 63321.8379310720 1693150.25928321 138681.449120727