# OOMMF OVF 2.0
#
# Segment count: 1
#
# Begin: Segment
# Begin: Header
#
# Title: Oxs_TimeDriver::Magnetization
# Desc: Oxs vector field output
# Desc:  MIF source file: /home/martin/PhD/repos/ubermag/oommfc/docs/ipynb/thetaevolve/drive-1/thetaevolve.mif
# Desc:  Iteration: 203, State id: 415
# Desc:  Stage: 3, Stage iteration: 50
# Desc:  Stage simulation time: 1e-11 s
# Desc:  Total simulation time: 4e-11 s
# meshunit: m
# meshtype: rectangular
# xbase: 5.0000000000000003e-10
# ybase: 5.0000000000000003e-10
# zbase: 5.0000000000000003e-10
# xnodes: 100
# ynodes: 100
# znodes: 1
# xstepsize: 1.0000000000000001e-09
# ystepsize: 1.0000000000000001e-09
# zstepsize: 1.0000000000000001e-09
# xmin: 0
# ymin: 0
# zmin: 0
# xmax: 1.0000000000000001e-07
# ymax: 1.0000000000000001e-07
# zmax: 1.0000000000000001e-09
# valuedim: 3
# valuelabels: Magnetization_x Magnetization_y Magnetization_z
# valueunits: A/m A/m A/m
#
# End: Header
#
# Begin: Data Text
 317589.740217203 1578131.13559364 546478.614200670
 1308952.23183558 828387.815329240 700298.280868016
 199905.335611943 -1665518.28771511 275838.159217357
 1022836.38173810 768999.843403206 1119126.88156381
 923205.892177653 1427430.66580521 -11514.1203463852
 -873614.397687491 1388622.31662784 -445562.505061016
 1686394.34246755 -68447.0174333088 -203443.180023115
 1047478.62007369 547414.291184341 1221935.40512405
 1564378.62929458 -146327.835714347 -649082.174074714
 936717.898118003 1418018.54825849 42225.3021337321
 968174.442668248 165613.570450335 1387519.51115893
 1196562.36411317 1158359.54075869 -341235.524412721
 918603.151986873 228603.329944237 -1412058.34394270
 817306.379633742 310803.061761623 -1457879.19204905
 1598536.22577275 445405.159564276 -369183.123565689
 -6879.85340519720 -767149.940753512 -1517047.67097775
 1628012.36725796 421601.686638781 248651.864819998
 482885.181843342 1621314.74645447 -167810.589908425
 391115.139540676 1585025.80327691 -474048.679534558
 75962.0798238269 -127405.487533929 1693516.34304930
 123871.258256165 1117360.30106829 -1275210.51947301
 1175616.55650409 1072090.02499574 -598789.353928498
 -1014777.45462571 -658117.999525478 -1194616.01206578
 -248267.632374818 1678919.40567027 -97942.9016253140
 511326.221807228 -1320186.28112826 941091.747925291
 1540348.55854147 556519.248059549 -455645.305844851
 870063.728064718 1437641.02286799 -257249.681191641
 1544628.56859681 -345075.631908531 -620520.260215153
 -1451724.20834646 -824089.151629519 -321518.106904371
 983877.609465293 58967.4418333061 -1385102.05053508
 1249536.35079553 1004722.89318354 564969.747821495
 129714.680883604 -99724.0869547214 1692107.91855730
 58971.8691022325 -547811.988585657 1608236.40793772
 -394735.319831444 1645495.10808963 -162879.945145693
 1033219.69935271 435922.154606684 1277665.42098961
 1118264.39785290 -770478.138080248 -1022667.18693575
 -716843.483813035 959609.852053955 -1206351.66993534
 -25089.2677115302 1062787.25937449 1326594.80247624
 1447381.17012454 -427337.252019278 782605.022604341
 931020.042122811 -1095943.16862342 906702.957044533
 1550147.00396074 632364.479907670 295227.760657154
 -604407.552237706 -1482933.68939783 -570612.989378063
 1111227.07043500 1269210.07795234 210428.553092665
 1206264.19260838 683402.735782938 -983812.684587487
 1485616.56516100 516475.613901046 645132.824746005
 711023.424905143 -500002.455736153 -1460973.38562137
 553003.047653430 190768.582209864 -1596181.37356870
 878544.314239517 -724235.877422213 1262395.45379881
 1222450.28491871 916403.541174568 -745533.265941150
 1672634.03024676 179740.287757038 -244926.172177452
 381445.437235485 -1500935.56702448 701207.388761082
 -994786.224021409 -1282197.73541579 506329.276056453
 1529535.88670118 -466747.470195944 576772.719846332
 904608.064295590 957878.327728354 1074315.29788964
 1218317.61252148 608244.642714759 -1017713.44180410
 1649649.86428957 -388104.545460764 -134276.531985670
 1216415.02496895 -506856.850772267 1073978.87309528
 841973.223056587 -895837.938841757 -1174119.02249621
 673309.223128109 -1555527.99604836 130335.503836866
 1305493.78543762 1071865.55816809 191807.719857047
 393202.633617616 -1279172.25551514 -1048384.48559509
 -443518.859659119 1563013.67469717 -500279.195885970
 1481257.46442109 31661.8033106395 833590.939434872
 711624.210544214 139406.598265977 -1537581.47209416
 -146001.688486574 -742721.175485648 1522185.52169054
 1639718.99312493 -237125.132560643 -380911.138053847
 1224902.59614284 -748203.521505672 910936.397543235
 1102360.77108641 -132225.274376154 -1287368.32615454
 1631999.16459452 469175.361161694 -80331.8569534830
 892845.070933484 -1355351.76434550 505815.454682154
 1401263.60550045 -586676.634665148 -763066.729872205
 1420137.71290737 696113.288975913 623406.099817249
 920806.028015893 1410715.67945947 228029.670211562
 798253.449473232 1121427.34837942 997593.169939927
 1420497.98496090 -39288.7487646412 933081.919738317
 -405500.327538139 349352.833528992 -1613543.33132759
 1076682.48952408 -848984.865818813 -1004977.37007499
 -918376.377364279 1179848.38171179 -809038.086663005
 1537474.87239190 404455.502716000 -602151.777450049
 1653199.33810039 -264620.170033092 -294801.821765233
 800507.086464352 1144137.74479605 969606.737524742
 496993.534485917 -1623372.37232798 87518.9547550570
 726228.945062408 -1332004.17347815 -767043.936936029
 716255.358299826 -1526295.05201397 217719.259378811
 1603530.06845403 542748.944461649 155289.738391138
 1102215.76260946 291018.507565148 1261121.97701483
 1585615.74316934 -470536.365579615 -392960.867874478
 1496470.36139356 -767287.894262259 -248688.047137797
 1360063.07773994 -939852.430274973 -396113.410369807
 753355.485016544 1309753.91747920 779102.168424249
 1639299.57506128 -436031.094156796 112132.903879026
 837199.797626716 1339387.25382745 -628600.257030129
 949101.954867936 -744529.109050107 1197865.55382602
 1078514.04459872 1188228.13627217 -561178.538234023
 1011762.27955338 1248149.37164889 -555391.965845235
 294044.496628927 1400175.38507843 918175.759330815
 985789.059203549 -1141448.97549064 784419.637124122
 1671025.95913695 266921.642974747 -162557.929373176
 -1268195.81629675 -967569.398313118 -587782.979487685
 -972399.966006912 -1243941.58657136 -630117.159985410
 -288674.537589162 973607.695133441 -1363361.67883824
 1491743.56045570 801135.836973582 151269.694769235
 43474.6659210999 -1075356.11226638 -1315948.01767942
 1254910.75524027 563099.691507588 999058.423620136
 533799.585536018 1497691.04271309 -601647.357725897
 361547.203726637 1659444.66873872 74343.8690955422
 -342056.353784680 -469948.402878702 1597543.72380454
 1354189.79018380 1025999.83216485 -59113.0828131139
 -393609.077427851 -1424835.52931586 839592.525315464
 840576.341404768 -796705.577143362 -1244464.39789141
 1609611.12654269 527085.687651230 146057.177787318
 1047890.56333381 -1019322.91113303 867701.659624571
 1476636.18849001 -720874.712852072 435758.207280287
 613866.243571655 -1579755.76380080 -132438.520610079
 1676018.01787662 84152.7992981242 -271812.270001244
 753492.354755407 -1510424.63951660 -202155.088153386
 228492.859092270 -1578662.22613099 -587891.647441091
 775407.861309223 1471391.41151578 351781.129024081
 304989.738984698 1617439.66436973 -425288.362452543
 1085527.68454997 -835999.276317923 -1006347.28402848
 234189.900562674 -57883.1789156053 1682796.66866591
 1475160.98152155 -87147.7579507332 840419.744461385
 588918.879624754 -404366.102256710 1542615.50898701
 1446685.24354204 -566417.633235016 690125.257383154
 1162452.02164231 -1049654.43821710 661007.456622724
 1638157.21424294 -174320.128399123 419587.218893424
 -1234325.45322731 -60809.0616977118 -1167365.80964608
 -681556.486348171 -1495601.07005352 434348.011589228
 1251749.07124020 -889778.459890142 728984.605437475
 -784995.217140741 572899.978220319 1394836.23555646
 -1458826.63445725 -777435.184075934 -396761.118507043
 1028399.36141837 -652939.574407996 -1185775.97614650
 1573874.02918621 -391398.583800560 509634.858356545
 756677.399400903 -673853.263607228 -1365049.84977171
 1640374.09309937 -440108.545130920 74008.8048219237
 731998.619665357 -1493728.19870654 350648.098806946
 1554270.16497913 -611714.062222391 -316307.066527323
 1322919.49776320 -325387.719917063 -1016861.26593805
 898702.289263488 -382946.048841954 -1391289.51658126
 774677.818819435 -851786.090521165 1250733.67789623
 621721.219967818 -828884.440589405 1347743.78454902
 1543529.53405405 469176.757700113 -536087.443927664
 1435795.82939594 496245.218830666 -763040.640514593
 -1235664.45301959 -842763.069229912 -808012.233005159
 1576841.13503699 -517740.471815249 -368126.117926707
 -359753.545582283 -11752.6103515253 1661456.96982826
 153541.853424223 -1010870.29848784 1358148.05484607
 1004474.24076574 -1357222.13103263 197432.486367735
 1690417.91301662 86900.8577226233 157909.848583319
 1232394.31686502 -749196.713894614 899949.182814410
 682311.643777895 1220130.47485050 -967332.644495263
 1068347.28648436 -927465.249068153 -942572.165530291
 444370.027738332 -1419475.48326009 823179.586039019
 1526804.98054271 302008.202316178 683854.953278629
 1406832.47024638 -954366.268336253 2725.16465590647
 713531.043471579 40767.2207685120 -1542469.28128672
 335194.994703402 1167930.61928053 1188941.70760084
 1497073.42101574 -560792.980986955 578171.604771462
 -164687.549576966 -361386.448702508 1652960.32792942
 1296774.48086911 893298.509369214 -640619.792798650
 849952.923092891 -1395405.98852206 -469491.379817178
 1051519.99716512 259112.600920124 1310406.94274957
 1316698.21982227 422049.590959545 989029.797674337
 1559819.35005948 644583.220723409 203656.737531204
 1509239.57592561 -748477.534369031 227985.269271353
 1532184.96350383 730348.288567956 94871.5710770596
 941737.447839669 1270897.65164978 622856.113695220
 -169569.863820086 867525.882015027 -1452117.38689339
 1384275.54897041 764278.333807911 -624227.388853190
 1419233.58920077 -249496.268665004 -901957.665972486
 1286493.24321265 1104901.68415164 118858.754524305
 1665325.02003932 126467.418239295 -317330.379502092
 128279.456935389 737250.346631916 -1526435.81827717
 1542750.21705715 -693903.265155912 -168582.402332161
 672113.591817007 -777480.502280525 1354174.06128919
 1470126.74392931 -112378.474172268 -846225.995421154
 1243805.60492951 273224.734202834 1126186.42407274
 742408.931184052 1424837.67572371 -555577.696399358
 1546081.38665179 -125226.926789508 -695665.553736655
 986533.936926360 1244074.45765619 -607478.012030102
 1191413.87361473 -1146998.06995206 393609.462900206
 828922.925585041 425107.425063609 1422030.40072824
 814506.130049367 -1468078.14870144 -267069.866172419
 921178.101954065 -943500.856117575 1072957.14685430
 -727748.896579553 133281.620255399 1530561.18898571
 -31005.2503257412 1693092.07247295 149926.343854189
 -219855.236565371 -1683712.53839274 -82315.0230144722
 1564557.12836088 -548156.175036542 -376411.742463553
 924644.085588565 1261810.05008564 665483.818352461
 1476255.37202695 -247764.824335737 -805780.781840472
 1439516.68264596 -672727.039984058 -604342.659472462
 -659989.583097250 1560074.14700103 -143465.696464821
 261393.496011725 -1424797.36338571 -889733.619423192
 1085228.87774196 -1286812.17614854 237471.485089834
 -1261943.79742716 1088410.61074796 335946.713849636
 56967.1836459681 -1674947.13279670 285143.546873457
 1274521.31607939 -250650.006685999 -1096708.70745498
 827873.753973766 2610.51553422882 -1484795.68718731
 571725.309526452 1428151.17640763 723542.941208314
 213117.180962308 1638665.48271941 399194.818256232
 -1324618.81216305 -1030915.25130546 269441.546702718
 1543793.54447973 -710264.666429085 -47176.2190632631
 1661530.15245595 121406.410177843 338493.775492904
 1485831.11351505 -514332.073704992 -646350.075476876
 1572088.22209082 -508985.089740711 399340.456734549
 -1105434.21919199 574158.467038560 1156873.90919120
 1043181.16144276 1334391.47858383 -145507.547205565
 1523811.54553919 628495.499142466 -415922.806827345
 1362729.08557526 -205412.595951529 -995376.865690419
 565316.281941819 -561603.787859714 1501671.96379006
 1306502.68852844 11298.5377104746 1087622.66798443
 392120.352370030 -1602390.50952133 410592.601313250
 600842.801441877 -1576577.95498443 -208302.375916788
 1634738.64740026 451920.137724978 -115748.623380985
 1649390.84634195 -240066.863192452 -334481.295740600
 1006341.30210256 1338883.90609087 -290976.063780794
 -725433.582913759 1535113.52732264 84691.0562689406
 1564157.96563454 -631443.370383118 211398.033437469
 1273737.89998392 972836.413687147 -566728.395573122
 -399784.333814799 853382.134749297 -1414889.18948693
 1412903.48857438 850385.780305717 412974.280831354
 1308103.80692392 -269954.414283002 1051660.13736390
 1001503.94681651 780471.202587073 -1130422.28677749
 1063160.14013714 -1069992.91833050 784095.447726965
 -171923.412087233 -1441629.72989951 884390.220573555
 1514393.18408608 -582480.776230449 507276.482123493
 1207638.88465141 -1051871.82292455 570240.293573930
 1602350.70737371 -461073.895650961 331486.158577139
 854480.521679483 1329262.72706820 -626836.215049499
 1579163.83290699 365012.053425692 -512842.850873894
 1670515.69973524 212220.991852373 233108.445911539
 1437260.48384153 -34527.3950863116 907243.165075474
 1515061.02903662 198484.784965117 -745113.325898712
 1016086.86793390 -692579.028906839 -1173840.60482279
 1349030.31976727 26981.4536881287 -1034112.75860299
 1647835.68702417 412653.567981095 -65989.2521706345
 677770.772890117 -792279.252062188 -1342728.70162506
 524515.472587390 213710.676261838 1602875.93589402
 1337123.15485291 -775025.288554595 -708122.497070291
 1653087.36414198 -137094.638507935 372165.590304247
 1354257.96759744 -328530.869952287 973680.042255788
 1665441.39297682 -147495.177928696 307490.063330847
 1561092.72990409 600654.754145972 303650.053453702
 1168802.51246841 385319.483992418 1172787.10007544
 1640400.21888900 -409421.588297152 177372.728752660
 980002.858882948 -1386710.80745476 81409.6620151706
 1281632.96770605 1022770.80817245 448727.991147475
 958167.180214933 -1403792.41117411 -35812.3035973592
 1421635.57769409 811917.912031422 457975.532487177
 1551053.78359257 -415688.824326275 -558063.582160131
 446541.786726569 238723.353393617 1622840.59391289
 1406241.94211351 -924748.174651771 239425.173528258
 1682715.28852888 179157.947198220 -162393.619661836
 886362.518138113 -1199950.40917860 -815156.734592791
 1379342.08862707 904831.269414716 -410725.914000161
 41796.9787220319 624179.810288926 1580712.68009003
 1640966.71060599 -379117.946977386 231295.994264092
 -367818.087994555 -1633175.46944158 295715.640706240
 1331327.23249009 -946364.403841542 471128.660953589
 1430713.69239352 -911338.755388668 111892.820700646
 624974.385989039 -1093873.63831719 1141423.44476199
 905373.586636819 -1438106.81359132 46340.7091293794
 1311074.81742487 -1011353.66153045 385028.043684212
 1353575.78821853 -435261.736683860 931868.985495030
 1409297.88383600 -430793.992047186 -847523.457511008
 1331235.85739232 570996.811618500 889816.685118036
 628138.133594521 -1047243.30787739 1182676.59959535
 1430475.12623586 199203.920248456 -896693.209173650
 1458647.28468948 -849801.369066322 200463.792244379
 1188620.69357821 979429.591752267 719651.666848381
 869965.116577900 1004381.25729729 1060367.38252717
 1008062.25868698 1074022.77455847 -848696.389965600
 1607958.28177598 -536226.282070451 130121.245325069
 1383875.12282433 -888615.166205408 -430409.956689759
 361976.902418349 68453.4104092347 -1659604.42657850
 176565.979871664 -1484289.72412124 -809758.278512825
 578156.577462934 -563733.107997958 -1495974.58363547
 1662676.96874052 336992.287106313 -109277.152464240
 416116.645244036 -1512157.38702784 655916.895961668
 223388.975927819 -266680.812673082 1664024.85245442
 1371827.03591420 805215.161340416 599765.893897278
 162015.852502036 -1120116.81116829 -1268498.79498414
 1365101.48103693 598221.316982994 -817697.500532998
 1407243.52784561 373541.201236344 877572.005202733
 946913.849514545 12343.0916544963 -1411807.99320798
 1428577.69399132 872284.694738169 297128.227464155
 1052575.66441892 -1239736.71164014 495113.478391337
 1399766.50964551 563252.187496775 -783199.011589601
 1078756.55605391 831505.042774444 1017292.31620581
 833757.619688097 -1477942.04947415 102642.729933433
 -606901.207168725 -1524342.58694725 445028.765762536
 1519619.52635510 550092.024045629 527404.266385559
 1361698.46183916 -192482.789059651 -999363.634990128
 1681186.57153328 20605.4292414479 251370.499426528
 1520110.19990068 553671.205437421 -522219.471513075
 -32761.1299107173 1691444.78172277 -167156.390095561
 1453660.37505799 565111.924001527 -676402.267395348
 -234763.198089596 1573536.02306040 599058.114838621
 220850.946490796 -1036452.68964413 -1329282.01731746
 -1381223.23417755 -989948.028751306 47172.8496011988
 -747411.892820237 263919.358367512 -1503902.26901543
 1050356.37711045 -1231743.70013620 -519190.656924983
 89662.9399522731 1525206.95901380 -745455.759502196
 1411.74023869477 1660852.58259005 -362721.250953738
 1490646.77044787 130857.479721164 806751.836536092
 1535819.89988581 531697.870991366 -498552.513881943
 1031787.95591140 -1290743.80687746 -399241.830277908
 733669.489988671 -1416705.37899023 -587090.238889997
 1698402.67824779 -22420.6534924450 -70183.0237143590
 928636.103522931 1387032.16178866 322144.019652099
 956166.131396652 -1300468.48496627 -533411.706638962
 1177415.96807498 716035.558276818 995482.153232932
 1015488.09167313 -83425.5038686108 1360817.44586639
 1137674.56778819 -890798.514357814 895641.995791765
 1071212.40965184 -677963.860530614 1132638.06099844
 1126913.96985319 1094150.18258453 650307.836720401
 102132.342265882 -258538.722523683 -1677118.57470458
 -416191.900988064 1647389.41485575 53781.1990678559
 1027762.33265179 -1181939.48312118 660850.698585836
 -172638.957924039 -1656315.95281421 -341779.541020337
 1024114.71691329 -85041.6232586683 -1354236.67389239
 1588820.40759602 -439161.323774946 -415676.610006710
 228210.619397723 -1682371.30227200 86871.8279174413
 1174234.56576035 -1133443.82239751 475897.348219683
 792503.117757012 -543301.185215992 -1402413.14543479
 797949.530274161 1488438.05061967 -194496.058064826
 1553422.08309152 296873.982891495 -623494.723350352
 1063040.32627031 -156199.334937372 1317401.62155974
 -601357.290424849 1537915.47998735 403962.109198560
 1302020.28885359 -40424.9434863575 -1092295.28578940
 -616068.143867054 1397585.76824749 746467.723685547
 1417038.98202390 -372322.388775923 -862192.879952543
 -198952.818168327 -1153949.36155779 -1232403.60560299
 445092.577894206 -1183652.58451093 1136159.82867029
 802181.397953074 -1154090.23800322 956337.141035378
 1535560.98426108 -409003.538367433 603960.734831387
 1208420.76610119 -993094.602739871 665944.713969824
 1018767.46201116 990842.307407027 -932922.494208209
 -193634.776155812 -1663119.25358919 294176.684671013
 1477772.75834430 -147840.818179275 827242.870731185
 941128.924222108 429430.627944738 -1349023.97449991
 729163.166320791 -1497165.23803200 341785.498389876
 -419984.138267917 -1532628.48943847 603873.527292684
 1092279.55105216 1087953.90594178 -716436.794769307
 574366.158987334 -578000.643954318 -1491984.84275093
 1618316.14931384 333131.534744142 400095.265441896
 1043440.44718813 -290893.126367802 1310195.87169393
 1551524.55644977 -594794.612183747 -359153.059364031
 1487152.80544289 -545144.308995638 617409.277248904
 1004150.43843857 1370927.62107211 47321.8212368656
 223750.224804013 -914060.403332824 1415778.73128508
 1146490.15939428 1110682.45491771 -584760.462711060
 1420014.14180357 343392.897894280 869276.224656833
 576882.646662590 891458.563752268 -1327594.83318229
 913109.244306805 -68508.8630722549 -1432319.11375992
 1384795.78020914 986060.323904533 -5068.01107416178
 1631648.22976809 409441.173778355 245116.257130490
 1435033.32445620 -592380.394029924 -692650.580357176
 971725.992984047 -174143.035289872 -1383988.00494050
 1306504.47553259 -250924.616513621 -1058339.68660388
 -899630.282404930 -1436797.96518668 -127581.198518642
 1371632.78543278 545382.200818639 -843315.929504554
 -248095.131251943 55493.0724857517 -1680883.49529501
 870418.848011272 1330533.85170097 -601706.488667439
 1031820.46915090 14430.0285938645 -1350976.79244168
 637834.093177125 486317.355233498 -1498887.28714991
 1484278.05177715 -824066.276536365 -88506.7053284941
 28324.0607045217 331172.429091831 -1667190.02210145
 1581357.24586612 55881.5670256243 621439.064923888
 1086519.68589463 753983.096731449 -1068168.74229060
 894467.617650085 1431348.64852393 -202900.782019427
 1533995.10403426 -60302.9544974365 -730220.907998247
 336797.685059082 825761.868900536 -1447302.54446288
 890365.123673448 1235660.23657041 755244.150129433
 1563560.51947057 385011.673295132 545017.901888934
 -1225805.94716134 900260.516324367 759559.597827101
 1486399.77044540 -495659.683997391 -659497.687698340
 895937.259293412 -848169.178371857 1169574.91092697
 1317844.67460779 -1073776.90866553 -16987.1723542379
 -429008.275864533 -251354.262046946 1625660.76848480
 1547902.84998902 -524395.626790339 -467980.761996733
 -48682.2560117639 1573176.71670409 642452.376421581
 1391102.63187375 -838560.469883764 501647.093026801
 1683025.74061060 176679.898438630 161890.610999709
 556314.992198386 -1549363.73567219 -424247.149712547
 284167.948647534 1178887.25850187 1191416.55549325
 767790.856554125 -1501701.41265282 -213049.449256293
 1428707.56622906 797926.440966613 460551.935188829
 -930262.603795465 1412981.13509240 167618.017685086
 1453159.91513701 498587.480535792 727830.189873957
 78343.1885122378 1492700.52841489 809757.665776398
 206953.840163486 -1664687.80625664 -275653.071345193
 276985.447505908 1533079.19334869 -680402.269831078
 -1197057.58342887 115876.072660837 -1201509.83256074
 1193445.87280316 1179805.57339932 271561.701395853
 1317685.90138817 -760344.665656287 -758669.792921056
 244895.276015936 72451.6158046776 1680707.31156629
 1654832.74237047 -78588.9477575713 -381251.061728345
 1251999.82620462 -945331.753413029 654862.055071638
 1197746.36319065 -558695.395131199 1069234.82216151
 670727.000783087 1460367.71700810 554483.021869097
 1368586.48516918 931794.799464058 -385654.617895336
 713698.500740770 1379541.65237479 -691013.226648669
 1445699.17409477 357296.015547759 -819935.031142949
 1592353.18156999 192924.984941796 563197.385762001
 1149003.43371393 -1241149.95045912 -171283.127566364
 -358042.044180937 -392810.824074886 1614777.24503671
 1603820.57527259 550975.075170625 119105.116905292
 1276813.36173573 628284.177672523 930057.326931763
 373319.489999094 1521741.97039205 659495.211456574
 950225.287439850 873318.183181775 -1106520.33602367
 542598.714635305 -1508221.72512122 -566439.637338783
 -385422.436303174 983207.043199520 -1332198.72984363
 352380.985948149 223865.133943158 1647941.75945232
 1648948.00565232 48836.0554953716 -410591.663747430
 1106882.25066213 -903966.700408536 -920682.294671534
 249796.288370380 -47938.8297975995 -1680863.96918788
 1668922.89137553 244454.213714635 -211987.075171800
 374928.584195303 -1452974.28756230 798933.211499013
 475677.993846053 -877405.111167318 -1376187.02110871
 807508.486355864 -268959.362282265 1471594.68125703
 1451043.70664819 538326.610083831 -703332.511883493
 1603521.89981037 -545799.882298566 -144291.390288566
 1601604.13376042 562068.549391931 -94568.2002893830
 -666135.642049934 -468922.966571970 1492104.07070421
 -588782.077119902 -215919.895880250 -1580099.44757456
 1644853.31030068 383845.313496790 192666.455044602
 1359799.43249439 -441786.597660922 919657.602325513
 1401635.36643596 -68515.2180910669 959543.623003075
 190834.914598253 -1432614.63632500 -895096.273681029
 1618554.30567224 356041.291244102 -378835.793608651
 -81351.4455787414 -1313007.42722003 1076751.33543789
 1618405.93022957 473479.069092956 -215823.576396634
 273346.193915384 -378079.329251564 -1634728.68668310
 938579.817660779 -1091923.46026298 903753.883979028
 281182.570230939 -903267.435041642 1412460.37218451
 769384.927550627 1498831.71973525 -227046.931653779
 49207.7782127448 -143245.381858552 -1693239.30829034
 888454.121237587 1448478.07823461 50601.6929531780
 1249825.72946203 379135.785625386 1088205.72596956
 865920.248498283 1359691.58468973 -539834.157648990
 499411.070268025 -1479823.07097457 671351.071724127
 1674447.03266531 284438.259615306 -72952.1162500295
 1160665.74872302 1211752.01735925 272968.987555399
 1322478.52854778 -1002197.58439707 369662.742724746
 811982.076455900 1455531.34879803 -334833.690330800
 373214.649445360 -1656042.15705189 90748.0000127462
 1567684.67655751 651373.845180637 89871.4009091848
 214790.045723125 -1512719.33165190 -745349.220100803
 790168.593359151 -1491143.85413036 -205240.347782941
 997967.996513573 1173408.58607173 -719146.833454628
 1392232.32249386 -32578.8066964095 -975001.426438740
 1589874.34207885 -592906.435151712 103737.821237169
 866656.889100175 -1112311.61920479 949562.372020517
 1560233.78985214 -615074.807576138 -278124.975665284
 1280371.69256164 -870226.883795777 -702391.272444302
 1070394.82576818 -1078461.04601900 762349.453458392
 470544.667686791 -1313529.91462549 971198.681576262
 1686533.07625218 151087.233152399 150926.573822260
 1001185.27633732 -1347826.47459613 -266442.933520755
 1133680.50201058 -1266731.98329856 -12593.7226238812
 1446523.17532116 571586.568814436 -686192.026775107
 1443757.55963916 -650850.467170379 -618027.328173187
 1617381.38566981 -326668.237110267 -409103.062995244
 1162417.19259524 -620641.433110949 -1074053.29563528
 1400551.83641127 376292.024956982 887050.655531456
 483810.882471184 -1625167.56454464 121480.110118883
 1386840.42798990 -514667.682634972 837729.552865327
 -164665.151621274 -1662300.57921349 315661.483535817
 445386.643079034 1431972.01911933 800679.008483482
 1560289.66181974 -674785.828952747 12659.2362727407
 1559130.31863912 -236151.670666321 -635094.511031067
 1408165.38498935 -254950.332858197 917644.035720441
 1392264.17447367 230975.669818944 947760.892012775
 282636.948541068 -1024663.15891298 1326718.42004469
 1407925.47894040 -615440.858411905 727309.009670348
 1120833.74019484 -1259248.60728661 -219145.321391015
 1295773.43519912 -343740.015108163 1045377.44697584
 -788921.955065789 955725.075879695 -1163697.43840481
 730563.340712592 290683.947871094 -1507242.53113324
 -800458.638267552 -441595.154485656 1433268.88194701
 1475928.76850717 -541871.212960513 646536.819413728
 -366221.882656283 1482942.50518254 -746165.570759341
 1100911.57942778 979440.530939177 -847755.826069878
 665799.943687110 1556857.74179248 151342.019304135
 1345419.70301083 971447.555062012 -368965.405579307
 746742.729044981 -1521987.22033897 -126214.887169881
 1368180.50822107 610922.331542873 -803029.265809264
 370832.127378791 -897491.938308430 -1395346.46377704
 1415265.05425382 568306.090960137 751034.628486295
 323717.574601226 -1084859.47332581 1268182.50067944
 1359808.74652002 891435.377255281 496249.071601527
 956176.241970072 778641.635747250 -1170232.53987096
 1419659.38148533 -929405.056265381 103795.385008354
 -857626.225171716 1363550.59649496 543329.576496570
 1672235.02035154 -262072.287322116 157949.843075691
 -512619.246452498 905922.838941122 1344070.42897734
 1275993.77190465 -832073.821241678 754647.633047916
 1690930.88331764 67358.5590236327 -161912.236624895
 1145724.90832590 191866.268480123 -1241169.51681111
 -93685.9369748559 -1126613.74899395 -1269631.60239140
 -229160.383314342 497003.700428790 1609494.59162785
 1474281.06193738 -843060.040713663 75796.5577362608
 -302855.585360086 -1243903.63878224 1118473.16992429
 501359.957611481 1572793.42515187 -406151.492306592
 522041.248388742 947260.829288478 -1311552.46036002
 963536.961261884 -778586.166461551 1164216.52010136
 1277170.60090789 -59602.4719921736 1120394.03850119
 1504369.51527088 590869.006732401 -527016.298046567
 338898.724828518 1439122.33748564 -839091.503984803
 1593430.24912340 398498.315930208 438382.405417168
 1401793.66872151 273459.969700644 -922059.735214379
 275682.621489519 1180528.73515620 -1191784.79503607
 844980.796511746 234157.364053181 1456426.37382946
 682543.300000164 1245907.51145781 933728.609670875
 573878.128191226 1116711.19374172 -1146132.62921691
 11062.1116964921 1697366.90089101 -93932.0682432269
 -1149464.37429637 -753681.298366274 1000348.01580069
 1132451.56561650 -115217.464216397 -1262647.37257568
 1560127.20756408 650502.454390650 -181244.732475326
 891125.310188900 1295527.31394238 646146.005458505
 870564.591795282 -1181577.96647247 -857899.062045818
 1356578.89446191 -416917.130213502 -935881.301039312
 1172523.33695420 -1108826.74347426 534501.896398938
 830017.445940810 -1460115.86388936 -262930.986101901
 1124488.93277141 -1261830.31744569 182507.232869047
 1670713.57840513 -113044.010047078 -293150.457487594
 1560653.53241771 -666139.063125262 103049.989474580
 579302.263527168 -504990.872013504 -1516374.98879906
 1473470.00292269 779537.501157609 -333477.787530061
 929786.185409738 -822729.309842584 1161298.46815845
 443945.082090474 1539108.89945595 -569259.659297210
 -299642.203657925 872456.376968849 -1427947.62511565
 -58975.9953890877 908338.137993708 1435772.84381409
 1361424.59079993 463325.898279165 906560.640855893
 1285115.56488548 -131097.013069671 1105120.60792172
 251305.370241846 1270306.58256218 1101438.51266732
 1077103.94250402 654615.855913442 1140756.40617487
 1072680.69213066 1305030.02784459 -190401.573402195
 803954.729963008 -1432612.17451953 437354.718264856
 1160247.81509127 833970.756713066 921041.684465678
 404062.894181553 358914.443712624 -1611804.45452917
 1606066.88480769 -180104.833566955 527362.693456738
 -784212.179901573 -1438892.39218258 -452327.249470012
 731168.417638618 -1364022.07685614 703446.173418342
 1158241.67666673 -1046421.36954668 673408.149481635