# OOMMF OVF 2.0
#
# Segment count: 1
#
# Begin: Segment
# Begin: Header
#
# Title: Oxs_TimeDriver::Magnetization
# Desc: Oxs vector field output
# Desc:  MIF source file: /home/martin/PhD/repos/ubermag/oommfc/docs/ipynb/thetaevolve/drive-1/thetaevolve.mif
# Desc:  Iteration: 2345, State id: 4699
# Desc:  Stage: 45, Stage iteration: 50
# Desc:  Stage simulation time: 1e-11 s
# Desc:  Total simulation time: 4.6e-10 s
# meshunit: m
# meshtype: rectangular
# xbase: 5.0000000000000003e-10
# ybase: 5.0000000000000003e-10
# zbase: 5.0000000000000003e-10
# xnodes: 100
# ynodes: 100
# znodes: 1
# xstepsize: 1.0000000000000001e-09
# ystepsize: 1.0000000000000001e-09
# zstepsize: 1.0000000000000001e-09
# xmin: 0
# ymin: 0
# zmin: 0
# xmax: 1.0000000000000001e-07
# ymax: 1.0000000000000001e-07
# zmax: 1.0000000000000001e-09
# valuedim: 3
# valuelabels: Magnetization_x Magnetization_y Magnetization_z
# valueunits: A/m A/m A/m
#
# End: Header
#
# Begin: Data Text
 -995833.369854480 -1221591.58599050 637204.752431658
 -1638202.29604602 -286246.307356161 352641.870393318
 -1013869.57324460 980311.595214430 -949240.572635274
 -1182554.13692960 250509.655167164 1195328.66856724
 1249794.43720161 574351.823215927 -999066.488232120
 54849.4996456595 -132678.121809942 -1693926.81317157
 1366730.16293845 -940547.404886902 -370701.012778169
 -1320125.99844941 -196680.520338926 1052893.21449858
 943631.496283392 -566794.060959205 -1295493.76366054
 1333131.31782679 -842694.896940287 -634528.328839771
 1360625.55149774 1018939.43620880 -21460.0547522504
 566957.570164730 -1544926.19938792 426335.726954355
 579374.438010609 -721429.424531110 -1426136.33499768
 79576.2888264014 -539010.043882709 -1610321.64080664
 -725575.669635582 266325.565882326 -1514136.92927368
 -1123375.54556658 784614.198173592 -1006184.84566575
 1645341.77593361 364105.117798678 -224227.347931591
 1687148.72057208 -205674.143370095 35033.4329029149
 695827.143984508 1189003.85954956 996039.360502698
 -578229.496118384 -1210248.59816776 -1044485.03122432
 1658878.99468854 -366392.091142885 62268.1020193395
 745284.758446374 -859083.456514736 1263537.19516690
 40655.3911130113 -311180.433479147 -1670782.41461693
 11276.4589797498 604649.437969153 1588795.73848763
 -1597282.35199588 91032.5344275001 574806.198364472
 -576431.224827887 -473527.675232704 -1527579.32161709
 1514408.76703581 -502549.664323587 586523.589647796
 -592110.607489978 -344178.375635430 -1555939.03294532
 1092774.26876139 467026.583927377 1215619.41718538
 -324462.416617460 -1656852.15693640 198909.703780308
 21298.0061918028 1585367.60878825 613315.530487607
 -543393.074745292 -88733.7291624462 1608368.82947531
 -1236006.29338166 -668923.474179115 956467.369235921
 -887610.996721007 -1448736.54991737 -57525.0157187690
 -502666.929888097 1579185.66096522 378812.098273942
 41066.7238859188 -1261232.17507338 -1139125.50877809
 33172.6802420987 -507002.226048726 -1622297.23419205
 792320.217706098 -1500908.59994306 -97478.4449563622
 531521.559676906 -1599218.25521411 223575.051802650
 -375140.868043074 1598136.87805548 -441845.955195893
 -815175.606467315 -1364296.23251455 -603477.025716186
 916330.501300292 790307.641857218 1194048.67723592
 995073.017334317 1355974.18907408 247312.936859509
 -594134.490394324 463387.228467574 -1523901.73036749
 -1241980.06306460 919479.416368981 -708550.016458834
 -1469526.70243877 -785912.838812239 -335905.166095308
 1693061.70981313 -144437.893692865 -51766.2209379504
 486653.896264697 -1557148.88710287 -477970.008101627
 -293892.227356517 1566519.52407830 591306.975589603
 1155125.16423827 848721.791668712 -913978.760852884
 -924686.161982512 1262755.45598880 663629.535364849
 -751276.830608908 883791.100166008 1242777.70138412
 758819.742415825 779454.744184355 -1306385.43328088
 1052759.02205554 -454439.438447950 1255063.04154961
 1268952.81574317 -820903.745158253 -778380.236518521
 -1183917.66164859 374041.505875129 1161220.01460498
 1243036.50949798 -874368.322777656 761800.677459705
 -274405.872862417 -806583.083198030 1471096.57971099
 -466321.291799848 609586.609905576 -1516887.80660863
 518498.246451600 1566181.51794629 -410164.627034172
 602272.477085419 1145951.24389624 -1101845.54723339
 1429160.58353272 -915531.040278483 -96451.7535507846
 -817025.435588690 1469054.82476219 -253667.813181019
 -400586.803896081 74828.9544807322 1650433.53095956
 -1656548.44516609 -379632.910064506 41546.3886971051
 155624.317673367 -357553.287735860 1654671.18128587
 -1251366.68266720 -1150406.23832456 25434.4713807964
 -935.428215497816 1472211.83250733 -850053.789591853
 665363.563059467 831014.773661457 1325407.77684047
 -572176.258035772 -416113.843462524 1545788.98916347
 1519718.06809974 91294.5235059290 756387.667449045
 -1442549.87148747 114260.485943729 892185.187964579
 1376015.92263009 308209.019513439 949519.552699693
 798841.361968116 1394790.39359223 553545.152947585
 -262161.351046203 1635463.39610397 382793.555355499
 -907907.335689446 1366585.19750029 445139.492490156
 -103538.092724562 -1452270.25229373 877605.251612402
 -867221.395591176 -955789.184295829 -1106523.42325502
 187289.830248198 500482.787576009 1613827.59265844
 -697213.722617050 -339104.223050125 1512911.54761409
 604064.951311509 -1417134.65642684 -718912.303519006
 -1160581.06002851 -1106576.24580443 -564394.024883739
 983736.220891579 -647673.827204649 -1225879.95385357
 356515.429747633 -731313.845783323 -1492674.38087396
 660644.730338516 708503.234841885 1396986.65222490
 -470837.814444338 865883.533318414 1385120.01617813
 -547621.688064149 1253667.74970508 -1009171.76937882
 169068.309420964 -626932.354781775 1571105.25722414
 98542.8332234705 -397061.220229575 -1650039.90782347
 217497.852516907 -181037.470591927 1676281.63456867
 687510.783470760 -986639.305777665 -1201612.16825812
 885301.535215809 -1078110.23330308 -971555.205117916
 778426.752565879 38768.3737561517 -1510810.64468253
 -1153670.42540851 1011907.73103822 -731496.612024168
 -1675302.38642214 -164641.124101158 237181.816973827
 338571.471962409 -1665895.47718475 12712.8859276605
 199275.589884362 1286461.12167892 -1093300.97488516
 392972.724154884 -1085131.90391446 1248223.21288192
 -791028.217697578 -515935.669485011 -1413536.25484430
 -990293.990246310 -1016432.15613510 936046.732196949
 506902.098990382 -932531.212295149 -1327944.20068559
 -160949.175858562 1489575.48476484 803280.920959816
 -1077191.20252356 803915.151058916 -1040855.19795204
 1539270.25054793 -408836.413422571 -594558.561319133
 -1414686.71206070 302786.108025939 892738.528072696
 563613.566676291 -63304.0743568741 1602601.74142806
 1488500.30255961 820123.084869587 -42011.6048720715
 -693386.026349094 1544439.77695799 -154666.071954246
 -1273054.97194106 -587678.281272045 961231.125243707
 1326981.33489541 284253.988043211 -1023875.09351518
 60666.7176285920 -1632801.41832308 -469338.979517286
 347708.986413272 -415995.044210510 1611225.18102212
 1072807.26131131 -1057663.48974279 787675.391606739
 -84045.1542389845 -1068054.79627075 -1319922.48416791
 -1374126.52537435 1000785.93558595 14275.9726802219
 149774.967546863 1645445.70433208 400094.855242408
 -69999.7153421611 -1355751.54945983 1023248.63840090
 64790.4380687081 1688876.98985844 -183021.070539844
 659336.977367506 -1436473.92614232 625953.200957658
 -631160.187696044 -539469.683543759 1483445.07077434
 184429.938864560 -1326928.52265171 1046540.15375607
 -245520.992582799 272478.770965290 1659962.27715403
 -500318.578448909 1621809.26598819 97036.2036237839
 -1638325.34838282 58364.4226766521 449981.829646430
 -1271988.19823920 -752782.885353726 839859.482924804
 816085.607045503 1068701.49774213 1040135.27519112
 -292116.323764154 -175016.036845972 1665544.18741661
 -839139.148127972 -739610.327172156 1280164.85423533
 -730839.933983993 -816159.442137816 1299906.44121166
 426763.598635536 1641118.97161923 120836.053688778
 -1518342.98251953 574138.607995017 -504974.698616923
 217420.682659942 1169098.47907460 1214881.47281006
 -107158.812555789 1116019.50955489 1277895.70904065
 -104410.664664826 1154331.34738788 -1243630.79470635
 953960.568364992 -373968.026788544 -1356505.49167507
 1189863.11965226 616170.144111846 -1046212.26813519
 -873356.251643054 -195336.735175859 -1445369.30146134
 -1433716.62466020 755008.312734023 514216.965760064
 1643412.02849579 215361.280791238 -377910.602300755
 -313275.733816691 807860.250108081 1462607.30577176
 -345703.125702882 -1148804.01673614 1204466.13900524
 1247336.30996070 79790.3065470540 1152295.81134132
 530062.778029842 -567608.299065449 -1512234.85946440
 303552.310839321 499501.345793346 1596356.60180761
 -559849.928304506 -767873.370141666 1409588.07642684
 -379546.952075781 1167060.69005878 -1176398.51108777
 1398950.77452022 -965546.942312849 -25609.2299687808
 287842.075641164 1316609.31262606 1036188.62056911
 64470.2241147544 -1173414.94247842 -1228389.58110648
 -987198.775501147 -632328.449461803 -1231096.79134107
 -995503.897340240 -175475.086548281 -1366813.99041028
 -135116.811369143 -1589989.19246980 -586240.407268780
 -1268832.43157358 172747.091680387 1118133.58008024
 493070.573721805 729051.176206496 -1454429.71359966
 -1649081.33686803 -279301.213410496 304173.596127261
 -764821.356226384 252864.932705807 1497032.93847120
 442051.244177733 -533926.444876301 -1552260.68976273
 -264057.238745246 782382.730039915 1485984.87152512
 335005.441137757 1587583.91460842 -507295.444967444
 456315.492059025 846251.246705187 -1402011.05529052
 1512781.81881492 -715472.166919925 -299317.134534458
 -1544157.83158104 -366320.840244369 -609414.172110890
 -182251.875581153 359152.080089862 -1651603.47457078
 -1587565.77429639 606146.471273002 -47131.3870578383
 -554302.713441556 1322027.12163666 -913779.399816181
 110475.296572994 549609.988740191 -1604906.24932552
 882851.033358560 486925.745565041 1368750.29541683
 409881.745808693 -243503.497245543 1631779.09083368
 1188043.64330907 1048182.21525425 616332.982419091
 -813933.574566752 1380820.11844818 -566434.406336456
 349495.192751305 1525892.76043051 662951.275667732
 -1201210.16592713 -1002895.22484399 -664300.613621913
 -1157718.97075376 -89618.0289189336 1241634.16256543
 -1533995.61022379 638964.134653387 -358583.745366112
 -1639222.43029495 47328.3736998759 448006.527922138
 -942512.264116660 -801708.344341461 -1165733.40116982
 -1201437.86573002 -90001.0091843742 -1199352.68921860
 -1093487.31764187 1151938.79822583 606071.358256115
 -602744.033222813 -1462790.95609638 -622046.822334886
 -1129185.22023483 -1095209.98684196 644558.626600300
 -1669086.89992069 103109.755675403 -305805.982279106
 -60600.9662580017 1697799.81717017 61670.9307984720
 205698.725179151 -1685012.67985487 91762.2100211921
 1407170.34893077 -171515.621780950 938325.103881998
 949949.035626791 -1334173.85830901 455606.129805756
 -1678919.00926598 45142.9428304951 -263045.766052094
 883579.109306088 -166606.072482517 -1442750.97442691
 922440.716365954 -207.737376286918 1427971.66695822
 -1639453.15250136 227071.744570248 -388113.106672753
 -1195082.58413685 53363.2272976978 1207861.74004526
 1548150.82568034 -199440.208362842 -673388.910090949
 358142.171281909 270923.941668784 -1639614.10184840
 450556.193702171 1053321.89758026 -1255990.48419744
 1387271.00445818 -937155.619328584 295327.793054501
 -663812.511169079 1399564.91276215 -700407.741947841
 -445911.892550986 590861.675987978 1530374.15814900
 98314.8496407531 -1695246.61582142 80455.5895269761
 -691494.195191165 1451449.07240077 552386.973274945
 1414271.58304142 503927.879830706 -797428.731192220
 -924096.026632619 618877.632581323 -1285704.86872079
 1380238.92161441 -609807.019031382 -782991.646699212
 -438464.191200411 1031093.23706304 -1278513.15578598
 -432040.522650931 31915.7633021033 -1643874.19556375
 -1136517.21916705 857269.253635110 -929202.904272635
 1036904.37296269 -594737.966896079 -1208766.34303870
 1074831.39823698 1285828.20304894 285277.579924992
 1563599.32593929 -106841.795137965 -658590.903925872
 1358302.89520018 317378.771387067 -971742.743921276
 -838414.675024751 -1110828.83827049 976278.712648073
 -1375480.58340650 30378.7632468182 -998564.116827416
 709766.734861078 1369297.51112412 715021.334027136
 329091.375671362 1245772.79942176 1108940.48473288
 -1395184.94915890 553210.585840106 -798383.996179117
 151244.603609636 -1693255.33689413 3381.41368731394
 -997400.679273866 997918.010080654 -948341.462839571
 564780.437669505 977167.502355407 1271285.46344491
 -58036.1540594527 -1698747.67289749 -29801.8228863170
 -769876.156633155 -286974.682228887 -1488266.18425851
 6482.32102489919 -1170077.92684695 -1233237.86214163
 1109494.41995472 552702.595006828 -1163418.22813727
 1512413.90135373 559609.112691841 -537997.985111693
 1500609.41269380 -429380.253076862 673649.752321211
 232350.576545368 -94840.4042905033 1681373.99387913
 1465976.85968489 554645.400979745 -658240.325443865
 -1044577.12666231 372246.950505114 -1288522.73332432
 815304.880460203 1269026.63218733 784123.305798943
 -1453032.99372606 516827.831531997 -715251.082975346
 1603427.12691467 -2557.85045883080 564814.045571806
 301850.137246917 1153571.93613468 -1211675.81588744
 528823.865786312 1434595.44703984 743156.256992695
 116113.840961036 -1651803.32758592 384789.998458077
 1666340.29503615 -335790.010525612 23560.3474094187
 -684678.354744950 956537.405045516 1227294.48108127
 -158573.179446008 1378068.84054842 -982741.480487063
 686450.054103462 -253104.051417125 1534511.21285496
 -74481.9394619900 -1698134.10166895 28160.4943663888
 320895.910964269 1312997.29717959 -1031049.90758231
 178028.724074071 -1585707.04574878 -586377.812052306
 -396068.510294540 -1371113.38547582 -923676.252440267
 374134.952772095 -327807.150146654 1625596.97017033
 233156.537834801 -999045.366918603 -1355561.27995136
 1150814.15001213 -63653.0302644458 1249629.97878173
 95966.0951353489 -1565619.66611772 655458.289786540
 -386474.314512734 427846.977977784 -1599244.99925971
 728782.193597349 1398801.85866612 -634215.952564775
 1379311.79619741 166288.306593934 -979717.902235529
 232974.181133463 -474855.826161752 1615622.16352879
 1646281.10993148 -356120.796113614 230079.302976531
 1279520.33770587 -1104551.19106404 181092.163596481
 94775.7259348474 800097.737020915 -1496950.62476607
 -1030603.14225815 -963541.191923385 -948391.024121638
 -1209486.52853899 -444319.030500779 1108928.73369642
 1616600.14111566 -525429.816814041 -22967.1797919540
 -166523.091856602 1690808.89598958 -58611.7490015638
 927273.246350051 -1382335.05895425 -345418.747883474
 249634.780862821 -75960.1521873762 1679854.91381346
 -130296.552920795 1323033.15880403 -1059531.06089534
 -336949.486084101 1579622.85210845 530336.392230837
 1018784.58925105 1220662.85558890 601714.345591107
 -1489395.04188280 -81319.6556268020 815530.209632775
 -1115827.00236433 -661716.596273870 -1098663.39113050
 -1085349.67118504 1189297.15895348 -545516.598247669
 -631063.361878547 -571333.189307989 -1471508.55250308
 -820012.758628178 1312139.01950928 -704180.565741659
 -1514956.07916763 187783.746148158 748094.474565611
 -971537.529425985 74702.6888471163 1393030.63038681
 1382231.19917467 824805.412902246 546930.473529596
 654399.612111368 -1144902.19293461 -1072828.09260478
 693204.677012866 -1479219.88423887 470505.908400547
 -1636432.11561010 419410.976054265 -190221.881404461
 -894374.979581167 -1369889.82969982 462055.462454663
 -71870.6280621624 253710.837553675 1679424.13455618
 -1119397.60831134 152567.170279643 -1270304.00025337
 1076889.77783158 1214909.71429029 504284.436131981
 1632307.17480120 393506.696518173 265943.164769988
 1135105.46853658 -1261437.47032646 -101543.506708956
 -1652418.01259958 -108455.913265610 -384385.257930323
 -595017.158598469 1480190.27429024 -587359.628226174
 -98746.2919322707 -1609062.56557256 -539598.767514049
 -277109.622707757 242255.374158173 1659675.44739755
 -1029711.05407292 -1156574.69853098 701448.581036421
 979055.461945388 1143103.89664463 -790420.068008636
 -493947.212759563 1626579.63197775 -15964.0797479283
 657516.714874321 82034.7581227804 -1565548.48794939
 1592839.53544196 -182247.906972983 565374.136954472
 -499064.826302791 -861180.768220200 1378151.65478805
 -1386560.75748728 391652.584998895 902251.361018634
 429196.408914167 1642357.59425160 -91934.6244855190
 -824491.385928191 1420660.79835062 438105.980968070
 -1099092.70791531 994151.135065511 -832861.777280810
 -40848.1959885987 26485.2975051214 -1699302.78464450
 778940.281295477 -66846.8241402037 -1509564.02324568
 956330.191755651 463967.585117658 -1326712.72108799
 694573.989874287 -333938.453503413 -1515272.93972468
 -509606.765329515 -1027135.77525387 1255106.78586486
 472978.298908345 1551899.04864578 -507839.415144295
 -507012.204308677 840936.841455192 -1387718.93889412
 1456078.05787994 -26031.4813117101 877017.132866453
 259154.303173665 1569173.28638213 -600445.038659884
 964786.007395361 -247366.399450935 -1377678.41833891
 494159.081695904 -104279.428749844 -1623247.54819376
 527524.925859397 -1254825.94671384 1018395.45170369
 635156.367891766 -1445612.86356277 -629904.625342906
 150486.843369705 1603220.96276806 -545010.325144111
 -1508334.03111064 587978.697410217 518854.027627530
 -1604060.68721766 556104.544790025 -87960.4853708376
 -136468.269482766 -1693860.32509106 47049.0223786454
 -1661517.37502046 234866.248610280 -272392.837220171
 -582708.600824587 1569953.46173517 -292740.182603616
 1655562.09961201 312983.238143957 -226176.097254311
 -850791.465352355 1090153.53754550 -988796.817885573
 1036156.27758640 1344851.91406885 -88053.9473484355
 60984.0678285511 1698078.98764907 52997.1242220146
 587855.925900170 -697376.791562735 1434604.83094604
 -1062128.10191158 -1174930.23658899 617594.393011012
 -986978.857135710 1022221.71167907 933239.255356843
 -1159294.56525549 -1236275.75503288 -132884.794039726
 -649240.729593031 1232702.67528740 974130.683931474
 157038.730201305 1273220.69134558 -1115458.60897939
 137616.991297693 1557613.96286769 667008.475497712
 -99659.8345930056 966490.127549637 -1394978.40510812
 78555.3242653256 1628200.30317985 -482486.096954730
 1423206.64605499 596857.524386541 712912.293489227
 780355.626167962 -1503788.09233456 140237.192145295
 -1458815.27102112 -104490.189274480 -866567.830802051
 791448.011412332 1496671.70079059 -153570.391951316
 836157.760223946 1461357.78262516 -235103.447822769
 -1287596.53014395 970583.840860431 -538574.213476534
 -937342.091850157 1282699.55013548 605038.566480031
 -1231950.39300888 -1169651.14295612 64918.6640860609
 -219400.646258105 -963283.613775987 1383455.10800033
 1071576.61811325 1141839.55943240 661759.754010615
 216612.544209972 -12048.0983165697 1686100.18949582
 -1524270.79932299 744744.971089855 109331.872606471
 865957.845506726 882911.659351759 1166440.74499568
 1018223.73366274 1136610.82219974 -749223.776360792
 -1379571.47170847 -590273.631930502 -798974.088375655
 838656.435819405 1075221.23285219 -1015162.39246857
 1541088.94926470 -356579.570386435 622812.861489906
 -265938.643803541 973693.958710282 1367916.92456195
 1615596.12013924 397345.366158855 -349236.075718310
 -1597957.16365812 -407189.097022361 -413194.799555636
 -1011112.70876721 -977157.656554636 955413.002008078
 223406.190925942 706788.031605599 -1529882.46353602
 -1229072.73820649 713309.716308719 -933043.114125591
 -602513.457389572 243943.840397836 -1570817.91955542
 1077473.56211877 1184512.47344703 -570947.390906990
 -1048440.93915356 -1224687.11686441 539363.572085795
 -1338981.59075903 -804187.235149541 -671126.806520907
 142183.767675626 -1331178.13214758 1047734.96491319
 -738857.098966815 -781570.430652575 -1316524.91402020
 129480.256027721 -1624037.59710433 -485527.287071076
 58563.8998239384 -1598813.64325434 -574774.045848616
 510638.511591397 480236.581611191 1548748.24815466
 1436019.38659394 -411446.870176738 -811516.971078321
 1103788.77191988 405111.031836532 1227817.33122967
 -125293.636859416 -1402973.56786654 951822.815670215
 -967623.178665916 -514274.668854426 1299702.63871516
 778464.135104202 -52995.1138062013 -1510359.26463512
 1696497.30916941 29159.8317417044 105102.731618789
 100587.727068518 -422796.548137073 1643510.02067117
 1553659.05009555 -597862.690932656 344534.118552811
 -661388.098329743 233888.177016473 1548503.18179837
 -1600982.98225949 -491515.894697929 292002.766724586
 1479409.42137390 671268.338397426 -500746.025261604
 1678273.56652445 -133784.332602558 235583.505906895
 -929953.354687943 -1295323.11970341 589342.662350581
 -1656839.02334850 -360828.232761928 -121191.737142040
 -906932.184887192 1411974.67228024 271664.382749830
 -84927.7251327862 1511757.29178445 772901.786930472
 -1300662.57831935 7019.75649713531 -1094635.82089131
 -322788.500743740 273791.161815268 -1646464.69245455
 -1642880.27987796 423280.771148938 -108525.456754106
 -1620193.02850343 191705.511331544 477727.482267864
 24432.2182884669 766761.429380069 -1517062.94435153
 158346.743648923 811502.562302910 -1485392.17048953
 -1456996.35380782 -309487.528443214 819377.260319591
 1448466.63030196 179717.702259384 -871576.714005315
 577562.715548191 -1581532.58671638 234895.693367896
 1245630.49563786 -930084.477931247 688002.567036155
 497788.279332194 1603077.17614260 -268980.289780063
 -327924.866667565 843913.807552894 -1438844.94204297
 1313978.58942481 -995117.718766639 -416174.233140240
 -1675631.69182137 -276384.745360683 76615.3111053734
 -682785.136594472 -1392356.99719656 -696524.550610711
 -31903.4599037301 -750017.846216746 -1525272.23786528
 338185.671452625 397667.147030555 1617866.27747682
 -366832.814750411 1478573.29703434 754489.689339295
 1286670.69469118 -117316.933231714 1104859.83753597
 532083.384742876 837987.748046845 -1380095.57850315
 518241.241964082 1577608.81794651 -364110.467667348
 1413260.97755641 145960.721715673 933482.124645432
 23410.5293538723 -272822.901059939 1677802.01804999
 101341.644583103 -920922.491196982 -1425353.16194996
 -1071476.05734248 -1011640.62116634 847656.954285153
 145613.667979638 -1137858.00040887 1254621.78787197
 590078.523160325 -380364.422932940 1548266.85111831
 168861.818929439 59343.5844026445 1690551.39676322
 1217274.85900973 -746092.011650593 -922815.597925177
 -728872.342954880 -740347.200359196 1345596.94210256
 1112364.94480633 599759.289898195 1137072.12776799
 934384.147848671 501964.540041036 1328517.16766871
 -212043.966721100 -853652.121659711 1454756.13467105
 -602567.327450211 1069163.12160204 1176351.49309026
 60011.2988188547 -761834.542466593 1518554.17220420
 -787785.771289322 1456229.06138952 385733.715558658
 -1603321.80100990 396729.047602370 -402449.083978208
 -1065456.46077640 171871.204077405 -1313492.60348082
 -395453.895880208 1626947.67685046 294376.413837909
 -870014.809239506 1295037.05952772 675243.101522504
 1257114.38206375 1129242.35391213 -185674.813961085
 1338525.65207679 1033469.15406863 -174041.909668530
 37109.4257433984 -531969.375919437 -1614196.85094628
 1226594.21719704 34209.1467721509 1176561.24388656
 40393.0657526208 -849428.278627649 -1472019.02151663
 701003.441881144 696217.822631066 1383428.68190653
 1691600.85761922 116064.316433522 -122538.210174353
 397037.055273290 -611881.921772076 -1535565.72329172
 1436060.78286830 786839.775272708 -456741.279015245
 -874280.355541203 471236.320088054 -1379699.31164171
 176367.430470907 -565121.592539224 1593590.94974684
 -750298.389254650 844708.225308287 1270244.20533156
 1584289.95454718 -167709.373716436 593210.675804576
 169527.144952947 146443.803308510 1685174.99376078
 518199.466484297 315403.485607670 -1588077.43961116
 -542555.576542194 1567409.07493056 372642.238867660
 402237.528266673 -1231194.70235432 1101074.28257524
 509742.157289093 1012876.85972919 1266587.30457375
 1576182.44389877 542942.392048221 332960.151462999
 -434697.423242959 -1608446.57760747 337546.674118908
 676163.146347674 217658.967265179 1544483.07646613
 -1548575.61466005 -701129.221732002 -18203.8488715740
 -1122853.28859180 -281232.467023052 -1245033.65086680
 -333110.297170954 -1508682.27146038 -709165.237233063
 -739853.354172737 -670689.572799211 -1375787.96013694
 1561078.68902930 636370.001251670 219240.845112235
 417666.950291044 1163521.98206335 1166949.40588269
 794310.574965744 245328.159069693 1482863.71756310
 -1398700.52148978 692967.908446616 673373.840483390
 -493928.209849967 277996.249717154 1602732.98108500
 -149054.563036270 -1056827.58064316 -1323215.10043908
 186085.014571296 -1484218.90894634 807754.045287394
 -1341106.19518070 -466840.399999357 -934609.123739106
 -409744.362479208 749723.906086307 -1469701.88203567
 1385080.21839702 857934.204900010 -485285.162216868
 842164.249702132 755094.620341763 1269090.81269016
 805155.655377059 250484.163016239 -1476137.54599373
 529775.962694843 1533064.12524195 508971.332441131
 571330.966727532 1275457.16937302 967879.091391668
 -933033.587045146 -1374911.84416261 359257.214578965
 -652510.142755983 1098980.32815845 -1120924.95374191
 1246434.14657501 -1106565.25066029 334537.388467946
 359094.475367321 1661252.95638464 35913.4050735247
 104818.543344070 259479.867912728 -1676807.46393831
 754697.568723896 -1140740.96685082 1009525.44609361
 -867980.122791902 1123128.16505998 935517.841244704
 -932792.289593282 -1409405.30519086 -182962.373659707
 708503.982215631 1406862.56085406 -639343.289674444
 1207068.19970053 1069808.75867977 -537117.846588423
 -978586.125993986 1359473.44590928 290174.333598989
 -1149090.92360161 156460.014061805 -1243024.66318902
 -1138929.24933078 -1220025.26921557 323076.627898580
 909369.216801972 999353.562393679 1031668.59255481
 -1525791.65694051 -466794.740523905 -586568.401663398
 -325173.568738356 -1422548.30103127 -872134.439995930
 1355610.87516444 710152.193376658 -740272.258954921
 1697846.55299010 68392.3744058683 51376.7031130530
 899921.416336784 832183.235610362 -1177969.65444253
 -772306.404499783 1117473.86232877 1022152.13377492
 -1108301.93425515 184574.168972758 -1275773.96065068
 -1229052.69284738 -933014.918966069 -713381.131788157
 776489.870320160 1109107.44431234 -1028077.89503574
 592878.462269893 251702.796562339 1573258.03070545
 1484799.29624413 -74260.3397771241 824534.081654065
 1358547.99988354 814136.886811859 617679.902169978
 -1068319.09624323 -877307.356146086 989457.483398866
 -1309696.74517658 -832029.319891939 694565.797109262
 -1001351.30937311 -1371235.35802665 83720.6552428978
 -1047574.60239172 667951.192795368 -1160357.12453842
 661430.243615064 -1559496.90635074 143106.365734688
 10358.2715249181 1025904.11565676 -1355512.24697143
 1272350.73913065 885225.511602044 698211.565531958
 136308.436296862 1680047.44022234 -221044.359341478
 -382326.908451254 -324055.331949205 1624442.75888977
 1223613.12986088 -635527.104909200 -994422.549702988
 80313.9423953438 -770794.243789619 -1513084.89662600
 1070760.68568679 1011430.34763378 848811.054282973
 -638260.357341515 252557.912116311 -1555261.46267235
 1246574.72631530 715709.365612260 -907640.653390335
 -784682.651253821 662779.531562512 -1354620.40046762
 1583713.46920690 430709.003831441 443104.278326410
 -461427.322243824 1228184.11700777 -1081040.51774979
 -1526242.24333422 120290.837061957 738995.757214525
 -463859.882728149 -1044254.49881593 1258716.23128413
 -1584343.85970198 -598120.824692156 148680.910994646
 366521.434520483 -1118584.46847489 -1226552.41425868
 -1514355.46523528 -111997.863194981 -764319.307326318
 -322237.946329662 886963.219755122 1414022.26034347
 800973.983135213 800005.358950702 1268239.76597119
 95456.2559446388 -418849.243425527 1644826.25662496
 134542.330287703 -1387723.61163511 -972687.791159714
 96337.0966735661 245852.419532950 1679367.66421600
 276686.282729883 1324853.32016506 -1028692.55902662
 1242551.06888555 -959369.084285688 -652439.883305904
 -1461619.70199620 646955.707191817 -578892.183112248
 1150091.83525177 589458.797806563 -1104457.82906169
 -838584.848874557 -897048.120027714 -1175619.03761073
 -1548525.69006892 -504477.175858799 487412.521622184
 1256985.91795235 -1070820.06987221 404142.029524711
 559112.753242020 -1168240.36618829 1101184.53311440
 -1671289.34908802 -305827.113651156 -57111.1913792457
 -1475145.50707562 596221.932194911 598719.584216501
 -90943.1028988820 720967.348989154 -1536858.95049828
 -665002.247819141 1331034.35313623 -822264.897199620
 1671775.83525864 159181.500930057 -264247.623275867
 -1120692.09365023 205068.551053824 1261743.28632989
 357760.112933601 -1086323.55876669 1257739.57052412
 1042153.12594942 71755.9831736575 -1341181.54660457
 583969.485130011 -621227.081001831 1470733.33893909
 -975456.582701888 -230278.584637561 1373119.16042304
 -1466515.10188821 113085.084216532 852376.219554229
 894708.071109348 1198288.82062915 -808456.164456055
 1001883.46486283 -1042863.11140132 -893681.181245754
 -238145.497377432 -52032.9049819875 -1682432.55403537
 1330295.27836443 -828968.529483470 -658122.822493882
 -261735.688064630 -1216882.96704686 1157881.80489399
 -1424777.48518242 -69738.2516982344 -924740.879364233
 156805.283206501 -606156.624419512 1580501.89807886
 267580.129776665 157596.998842372 1671395.84183537
 1342986.67724787 -1042205.65798710 13933.8147827643
 685187.245337473 1555298.32951208 -39566.9691003575
 499627.071328218 -349098.214552857 1586979.27717787
 322846.929094997 404327.067884889 1619348.47471121
 -527192.416057552 -380095.693788179 1570858.17947232
 530978.158491768 -1023552.93626872 -1249160.35073980
 -1278133.24588338 -887615.439424051 684480.998614041
 -364138.389195871 1588934.46186210 -482380.046665315
 -819063.168025216 605446.456650871 1361091.51599494
 -1088137.02175737 1290292.79297041 202737.096481138
 -1007084.89436842 1089434.50931059 830007.509278165
 302531.340585631 -1296009.65790712 -1057749.38174169
 901758.058686189 -269387.896029543 1415719.80457550
 -83197.0754867973 -864004.458965727 1461702.61733288