# OOMMF OVF 2.0
#
# Segment count: 1
#
# Begin: Segment
# Begin: Header
#
# Title: Oxs_TimeDriver::Magnetization
# Desc: Oxs vector field output
# Desc:  MIF source file: /home/martin/PhD/repos/ubermag/oommfc/docs/ipynb/thetaevolve/drive-1/thetaevolve.mif
# Desc:  Iteration: 611, State id: 1231
# Desc:  Stage: 11, Stage iteration: 50
# Desc:  Stage simulation time: 1e-11 s
# Desc:  Total simulation time: 1.2e-10 s
# meshunit: m
# meshtype: rectangular
# xbase: 5.0000000000000003e-10
# ybase: 5.0000000000000003e-10
# zbase: 5.0000000000000003e-10
# xnodes: 100
# ynodes: 100
# znodes: 1
# xstepsize: 1.0000000000000001e-09
# ystepsize: 1.0000000000000001e-09
# zstepsize: 1.0000000000000001e-09
# xmin: 0
# ymin: 0
# zmin: 0
# xmax: 1.0000000000000001e-07
# ymax: 1.0000000000000001e-07
# zmax: 1.0000000000000001e-09
# valuedim: 3
# valuelabels: Magnetization_x Magnetization_y Magnetization_z
# valueunits: A/m A/m A/m
#
# End: Header
#
# Begin: Data Text
 -1004191.68737523 1339648.23244347 -294858.726032632
 283197.069319359 -1435527.55065154 -865482.565537464
 762954.130151061 -922403.675480186 1207092.56262562
 -452332.352614129 -1513497.01292927 628269.237375777
 -158376.015517489 1124278.67351211 -1265272.50108214
 -525040.777610550 1529358.28063244 -524781.317604852
 370428.033501670 689465.111937010 1509112.63046128
 -941298.153128106 458164.872049026 1339418.80565338
 1120225.68685965 603445.473251196 -1127363.28275870
 329694.108966804 1633532.44290049 335966.594327701
 -925251.082319728 -1236750.58246923 710181.970644288
 1114890.70035607 794352.219620824 1007979.80011656
 996961.778663199 -943700.841833223 -1002744.20118392
 71474.4377675816 -114324.339466035 -1694644.90385197
 -793513.598885812 374134.245793832 -1456145.50595315
 -1084233.32445787 946196.300612331 -905069.422112236
 -191229.374739884 1682713.71460487 -148006.354313824
 349277.495046867 -77825.6054688850 -1661911.07060131
 310739.771449148 -385462.592508517 -1626302.36555702
 -1275996.46285602 955811.279205824 -590133.735115914
 1006428.19870733 1367561.13477539 82938.6731179889
 508273.231423144 1128000.26736731 -1165878.94699148
 828799.202531965 -1292839.77091324 -729148.276160198
 -1658827.62597079 -14965.1665950434 371573.614651095
 1135735.10341246 485985.645544409 1167871.45148834
 -920863.618266956 -1168351.37204975 -822778.990970082
 -173173.102320187 1555881.79644043 662754.035927440
 1263057.35706104 -1118031.56760907 211403.705274009
 827502.153349865 -1427271.98828892 410042.507122290
 -1672603.81668275 -43372.0519450300 -300857.669884549
 532393.783254576 203219.451057616 -1601642.50513769
 1574741.04711664 326239.093737560 551143.074204230
 1498314.19299536 482175.439649226 642309.446036508
 1043831.77570751 1303558.71180400 -318040.734660224
 -461973.739200337 -1099298.64100110 1211661.15815536
 -302149.280180431 -1530017.79050103 -676573.257849281
 -603980.066460718 -728750.512668163 1412136.95143353
 402937.658270210 -1490158.04130393 712088.657039951
 -1092513.40472992 1204398.73891364 495820.671401118
 1298435.73419869 478285.828453376 987576.483345251
 1108087.18009854 -1066361.41575295 724579.969564871
 -1121102.68398675 1244746.15004590 -289371.377132581
 1092016.48257191 1206448.26612720 -491917.252136929
 585047.271572967 -775430.600942446 -1395144.10479601
 631427.049275161 -1513309.05503298 -448548.308879719
 905227.186846433 -1437191.97775543 71013.7963323161
 1622520.86443101 -106424.259780843 496084.590988414
 595921.908126983 1361322.03575962 -825638.779594072
 -1380287.40265504 -732165.109132123 -669881.287275098
 234444.278829917 1015060.91075477 -1343386.47737039
 -345466.760467342 -1637520.58466792 -298628.619192847
 -1665962.16916379 21941.7681568543 -337770.054512304
 414889.781458724 594569.935648829 1537645.29748043
 -855294.666266224 543227.734354303 -1365054.82032219
 1338985.62216893 1034166.57762066 166183.613383711
 1304780.42558423 -253490.400496238 -1059854.07385569
 -479722.907115972 1503532.66605560 -631866.642965065
 -711345.764864389 -1491769.96028073 -398258.193153027
 -840943.073473982 -1477179.24694335 -27499.4468311247
 1213272.58723033 -806216.070557210 876347.691644535
 -323422.344074656 1658071.27450208 190256.763412804
 191728.457460782 1583521.54301269 -587962.346935928
 1661305.59900018 -314647.349627145 176240.608553364
 -47710.2475401615 -1665899.41073059 -335414.498206539
 731169.622034382 -753047.689396151 1337277.14454006
 1202170.72482667 -379239.086661523 -1140597.76587448
 543079.416725135 -424646.883602425 1553943.29734911
 997804.968033464 -1181974.57882598 705210.139445602
 -915389.310703713 1142798.32340462 863755.985144516
 946570.307806620 -1185101.01970069 767815.228738833
 684284.839901763 -1468798.72865392 -514183.384197931
 1457331.73754983 -865886.179754124 128161.345345593
 1184438.63658318 1016265.54502776 674024.820135289
 -57982.2271478259 1462104.35035105 865383.689480864
 -682707.946377186 -1483768.66345938 -471529.864684515
 1427775.92935740 -800611.784134356 -458777.360658551
 48915.0038331620 1678986.63392864 261937.407578552
 -174512.809177981 1571879.29790461 -623490.779604408
 -1007653.46688573 -1307748.65171526 405497.169669629
 -1054369.82866931 -117336.638154952 -1328358.52755886
 -186315.783599339 1421466.54642668 -913629.731440249
 46511.9090515506 -1549936.96928627 696801.286993688
 666532.713472792 -191891.392336578 1552066.95584235
 -440007.645713617 -1641312.48300152 -49865.8686571627
 -659753.448402686 -1394262.00643753 -714673.942945706
 870006.630426996 -1430813.66162613 293020.014192013
 733802.202240575 -861753.592487427 -1268430.16119213
 1095900.74980137 -974843.863982627 -859465.524288330
 400942.548019154 -1333133.56106024 -975704.863963869
 1166930.85298664 -955695.102568983 784167.874420735
 1315834.60100687 759202.306588736 763014.521790664
 541660.621751398 1163285.79659999 -1115064.98746603
 348746.809547243 307882.316684794 1635109.82563968
 154967.069307534 -96682.2178040612 -1690159.09197647
 -689230.903645328 329476.639266294 -1518685.58485225
 129098.698663704 -1181438.12965960 1215539.99185127
 109939.755219979 -1537828.77485593 -716237.327599793
 -340078.562743671 1616305.67961270 402371.123732704
 -772257.432809606 -1406416.46459165 561792.831563229
 -65222.2638882271 -1671073.87636208 305381.983806357
 -868431.192749719 438561.185716046 1394091.58588761
 290045.239040316 -563584.292604136 -1577417.66962334
 -712822.156513858 1094317.98118767 -1088279.71093477
 1336270.26667275 -705294.619177314 779064.358423521
 -1595365.37981588 39682.3963539101 -585862.281005135
 -777912.149330404 -232024.877620835 1493658.97851189
 927783.219670279 -1419890.96009635 114577.304624123
 1554453.88746075 21039.1305275332 -687917.485418704
 -1109375.93983387 -1251846.67463966 303586.770646162
 -11180.2037912819 -454293.963232296 1638136.74582248
 1635562.69751647 -461914.400603970 39620.0581439870
 597749.910345618 1469945.88673613 609880.426599627
 1534439.84244744 422720.569963490 -597328.795254029
 -1024442.11375676 1225752.28918233 -581420.399647152
 853045.298958005 -1218055.62650605 -823804.715125259
 492899.512099066 804763.257900083 1414003.59607271
 -104528.595726537 164047.342431455 1688834.58104002
 338164.160265223 -766700.101633034 1479126.75415869
 2355.80356755596 1486242.24947340 -825274.757925991
 -716900.530204240 -392877.941680828 1490537.00146408
 1187927.23231310 1059746.35294153 596461.698817332
 450249.718458866 118849.985142761 1634977.02493316
 -990473.657503524 -328908.449070675 1341931.87827159
 457576.599618606 1636646.19334933 44865.2791878987
 -1427954.19581297 -523675.087527970 759415.049470775
 1528964.09698454 -688292.161963706 280219.003480438
 1283351.97895322 12016.7077131548 -1114837.78947997
 -1038617.23571766 1312844.59167565 -296164.339139941
 -170963.294197842 1112531.26897435 -1273988.11909348
 1664726.54977828 -81289.5864432637 334779.804646559
 -1500703.40473430 626906.324725454 494851.241322187
 306628.807907332 1042463.25004048 -1307382.55551938
 831337.535417702 1023081.07156517 1073397.88671800
 223478.586740126 -1636111.72990029 403974.910794371
 1695680.48707821 83250.5616901287 87960.3872233648
 672199.114080371 1228029.36856860 964412.889255716
 1127825.55845756 -388418.739327795 1211255.70901808
 180084.431583033 -1003205.39549530 -1360569.19410610
 -705953.183628422 -1532330.04782837 -208793.503364478
 -554633.477469049 1057094.09990725 1210344.48386064
 -548529.162701541 -1327660.57298454 909083.692851383
 426819.015094862 1610306.14606602 338732.408097391
 1092271.32634703 6713.96686079788 1302650.47971016
 1212701.16830507 1077701.25974187 507854.182952474
 1260724.30484708 -180433.393158344 -1126063.06120094
 -1319268.85107593 -966121.757829698 -464906.923618953
 -339357.668524663 -1631719.89992753 -335151.519456515
 1585955.41656386 -20632.0735367253 611816.748882652
 -373356.263941579 1265693.42597433 -1071739.35806285
 7580.19572493008 47299.9562288274 1699324.94090257
 307341.614668901 -1121597.65659902 -1239983.80175077
 1618933.67526816 -371113.826926051 362392.442728923
 921998.449048023 -170778.020781386 1418010.48217953
 1519985.75014654 632033.626600260 -424472.395095351
 1653544.42075315 113776.720180136 377949.343882451
 1047574.60315252 1269338.60482893 -425871.996168779
 1413706.54169711 112293.455817349 937456.128969987
 -1035573.28734742 -1345289.71058986 -88224.4927075139
 -782998.386710883 -1326784.01850599 718719.482583610
 86614.9256022328 1191617.48474082 1209357.52559898
 1570958.05486271 615061.417855569 -209261.181606802
 1223204.83712104 -998216.502759892 630344.144147866
 625979.806343022 683020.359379269 1425353.45466455
 739881.629719876 24785.7279374171 -1530346.64102408
 -8193.19871840743 -1421643.13107191 932128.574484669
 1061250.53845455 1170968.47277759 -626562.152057431
 -440403.543609095 -346165.436784634 1605058.94257882
 -1071421.75218251 243077.635007970 -1297292.83213509
 -695762.578101297 -546401.516853940 1451674.83180413
 1275747.13244529 -857574.351353629 725972.097231030
 1222106.72567695 -942871.695518221 712353.926672518
 861801.377265824 1367852.70124096 525620.941221465
 -1559301.56251287 -618519.384100665 -275703.479551230
 1544982.62154932 -663595.588813874 -250338.957450426
 1281218.45048939 -1116418.65772894 -45701.8905548159
 -552337.302734517 612118.960129893 1486685.53590107
 87571.1158454525 -1313042.87733148 -1076220.09921700
 1545884.39834422 -138502.898565082 693583.718122767
 752109.043400805 -744629.245005047 1330360.58056376
 375098.704585715 -432868.729489947 1600601.64464737
 1607297.12325538 447758.249711369 -325743.008198773
 -668399.328895941 -1356599.48894083 776453.581186238
 -1366434.13929848 143517.215569101 -1001129.63785661
 553622.423354641 -1504919.81479324 564551.648125847
 -1557548.72529284 -660274.162144813 -167570.877966982
 302918.096904810 1312899.27985451 -1036598.33471074
 207997.652530909 -259119.559212019 1667211.45346816
 920274.213284232 1424653.24140885 116010.836163419
 -274495.318794320 1201792.06016381 1170618.70995095
 -1401741.57750363 -917094.760686757 -289927.145708253
 1609602.27508286 344056.005740161 425212.865471167
 -1681454.63268405 -96456.0567625830 231098.566285401
 -716162.519888476 -1248874.70996101 904114.596678319
 1234254.07847398 -1168609.25251505 -31133.3375432116
 -1580862.72197485 3954.52080316389 -625185.905179802
 1651474.99825383 330602.465142261 -230937.957435245
 1029132.35159051 -524559.129568588 -1247286.78438282
 -1651365.21252301 -267632.881775256 -302267.390668422
 1436115.13520082 703417.935128529 576867.859207498
 -351335.115862404 1213828.49031166 -1137182.49743375
 1645328.07238134 217703.108683281 368104.456239700
 -147304.454067610 -548769.867475897 -1602233.76270828
 477228.290891780 695457.077031805 -1476005.62748890
 1597649.63515723 -448923.653825889 -368758.994897192
 -387528.649730712 -481832.700999819 -1583558.90129957
 -180562.280832412 -63115.5906535987 1689205.04526746
 -642103.199523471 1331058.72734804 -840229.817081214
 1594541.09955050 377984.237776774 452290.391050489
 -609360.074641960 -1579400.60142496 -155480.029749261
 39325.3232078987 -520100.685386922 1618007.66253274
 180834.515511354 1415678.26725445 923663.316161910
 -910785.637101755 -1178658.69224839 819288.234040047
 919215.916519065 -1359910.60468166 442363.251290570
 1341200.52582299 840011.438680672 620936.335237164
 187711.607255169 546677.389389472 -1598720.79627182
 1130227.24512270 1191886.00713252 438171.336789669
 -1249333.87853619 1061897.00514713 -448931.632212841
 -1361729.76760936 -1011453.26285035 112491.497793970
 -640172.159400964 -389605.249449222 1525905.42168560
 -1102786.33505015 206282.991938356 -1277227.31980788
 -1676468.58443406 160204.730653725 231921.386857307
 1594897.95870925 480477.269918528 -339767.706524204
 178760.408315167 -1560321.60778303 650723.594703911
 -61899.7229907744 -558306.454314860 1604513.11224435
 -1694228.07266710 -136114.653565621 32619.6086951722
 -1410533.96668613 647452.437086519 -693685.282051897
 -1033299.00496050 -8475.15865070702 1349896.78791880
 407653.453613508 -1622454.91095585 -302421.433883605
 169324.340409987 590033.943018815 1585304.13922073
 49191.9488221287 -1649298.11674805 -409140.408982549
 -676791.294567295 277502.587673969 1534583.28461905
 1356103.95949970 680031.255307698 767163.309103011
 -203103.837246259 1683105.98348888 126107.413104015
 -1357070.40524182 -613698.053873212 819594.176339139
 443472.705877942 -1071901.40673195 1242722.54883677
 1544599.79948662 16980.6501753780 709875.423539599
 1106968.48208683 1267969.64755105 -238482.184985890
 562231.464065401 1426164.05606017 734814.171077892
 302580.652211954 -1637293.72415518 343095.044774822
 1197100.91437384 -1189719.72107865 -203755.701961558
 1651484.53705882 110082.303223487 -387918.432628061
 1137959.81442319 1242765.69592925 -224901.947033395
 1475574.02182102 -229801.519244439 812325.407629165
 -211026.932263214 1613886.11312278 490753.754676438
 -1094562.78712008 -519741.294628355 -1192393.09445751
 1648565.28784348 -413587.208551025 -34323.6455013579
 569253.103900591 -676849.622819018 1451835.21509478
 -641231.500123155 1138483.42738077 -1087509.83849763
 1096525.19448861 1278520.70198308 -230254.885838279
 1601938.12197742 536045.645834494 -190917.047267488
 -1001887.95530852 -19612.3138331584 1373257.39836122
 -349278.206459041 -1614920.73294283 400044.698507738
 -214864.575159593 66056.3085823780 1685072.63298588
 774200.912252660 -167413.838996426 -1504189.33448540
 -873512.183341282 44181.6839741296 -1457746.35803200
 1278072.12627119 -312148.724869305 -1076612.65718508
 927171.706668217 817464.424380740 -1167092.34477217
 -1328542.75005054 463242.854852047 954138.469362113
 1031299.71997846 -804380.473864213 1085998.59154528
 366143.717363681 207233.150327311 -1647116.63206967
 409013.106878547 -558984.992395450 1552496.07299929
 1574252.90587105 -634705.991605220 -94213.0170251301
 1250137.88118632 298639.440330596 -1112640.89566311
 98373.1198616916 -86707.1861006780 -1694934.98198815
 960207.682368398 -1389713.92261211 191563.096703865
 1529014.18155672 39255.3275251007 -742007.177768076
 411668.589310246 1382694.09940116 899269.703735489
 -489945.808157415 -618712.389096964 -1505705.17852829
 -207339.139817087 -227573.117995269 1671891.43100436
 156525.125701771 -517833.652332708 1611629.04960658
 84731.3181169458 -932134.236607350 1419135.78232479
 -901890.175078049 -1262180.29996014 -695338.049074138
 1077584.74691191 -463696.502054072 1230364.44487217
 1122644.88534356 782601.928809382 1008564.66447907
 1579817.76224532 -560716.784143317 -282440.305328669
 -843982.973859793 1084920.12120532 -1000320.48386435
 523374.620200387 1482678.27268806 646331.297887436
 1368355.85868554 969485.220119393 278748.366759350
 1338450.28543355 -776518.949149937 703966.728641301
 -912938.402275553 -1434026.13127106 -10607.9443021901
 426110.090194187 -1492842.17167291 692713.823674395
 -109445.423703749 393387.348462367 -1650232.73913108
 1605235.65784242 340909.652850495 -443845.796853571
 1629332.61466860 -406479.684626095 -264668.654667425
 475734.530605188 -151404.496450710 -1625039.48716466
 989950.377853616 1160493.45236498 -750501.962959125
 452165.198777004 -1368456.56027810 -901594.851164742
 522367.506716509 1295974.18602205 968288.746754429
 1094111.88664375 446414.074377938 -1222143.05778912
 1101409.64218039 1283807.84129411 169511.730401847
 205435.809446173 -1201569.41299716 1184916.48395440
 -336477.938024259 1042955.32612002 -1299625.63261149
 -805015.157287125 -1014212.66156630 1101509.54315275
 -927670.801985506 1392704.25746701 299669.375106704
 112146.189634935 988529.435045766 1378489.31377739
 473374.077096035 -1473132.71841391 -704128.523120547
 1567093.87926480 -226980.453568787 618624.803308514
 496933.569048379 -1534491.21485130 537023.034419416
 1115956.35360857 -70302.6626553587 1280507.30277661
 -654560.394408434 1552409.01734768 -227105.554598458
 1046019.44987215 -405919.582322921 -1277134.52822166
 193940.400976330 -920130.234059739 -1416244.14323178
 430843.812987008 -760085.937069710 -1458301.40131582
 -751407.539679580 925375.026016634 -1212051.05937720
 735035.106779101 889448.279660131 1248441.08776180
 865231.911137689 568584.573928689 -1348363.94279859
 606412.665852101 -921326.596521731 -1293607.73854976
 -1586972.73606647 -281905.166671243 540413.741484960
 340665.935457238 1485864.91956474 752430.834845248
 1442013.56928607 795002.076515208 422573.738336122
 517947.256280321 -21415.1745481826 -1619034.28932520
 1662653.02810215 226183.471850920 -272811.189660913
 1575597.65450314 -617546.332648866 161643.305324222
 21385.4597534622 1611358.16570094 -541357.113133328
 1032043.84785071 865948.135399981 -1036831.38595955
 -457985.553004299 1191346.85006012 -1122916.70042402
 -886951.006621618 -1170963.21360861 -855665.275810752
 1452310.67938314 579642.372081375 666939.585747875
 432736.471991386 1623465.60471337 259033.928513399
 -1632274.71676501 46408.1366479118 472784.870593980
 539216.970914164 -639836.793151014 -1479815.50755774
 279542.901751290 -1028114.58833308 1324702.29083261
 706945.662966178 -1540982.34632697 124904.915523465
 1285064.64164352 -972365.919664786 -541399.469035642
 1366768.63454723 32506.4413317301 -1010389.44515956
 -866259.044982309 1414804.46187301 371380.669462685
 354633.646567905 1662192.65049625 -36750.0933085796
 1527211.72291986 456322.314656220 591095.845462418
 -757756.817895640 -984218.542725577 -1160654.32626937
 1690408.05836972 -165596.242161883 -71403.6468296451
 341156.278509486 1573528.81525454 545545.104640495
 693910.904459909 1547614.68100312 -115656.628929030
 -138853.839797246 -209813.590913060 -1681278.64086883
 976795.973058801 -257838.909714530 1367255.91008170
 -743439.990423310 -1293165.56902148 -815487.456517103
 -398593.309605525 -1399950.60040133 878215.059067922
 513257.139258708 422051.529576336 1564749.05827811
 1403968.06201107 908050.093502387 307113.510844438
 -1236815.66455924 -9380.88303873552 -1166275.70108199
 -43389.1323321496 -973514.919682952 -1392977.41702806
 -833189.085649348 1434451.25217069 -371679.368139724
 -251028.867443541 -1382852.21694470 -956401.721977299
 -1438858.39927920 -645094.110761992 635248.057914307
 919537.088361197 667996.134126420 -1264212.28752151
 1192208.28311425 1185542.24831956 251254.825074400
 -1090414.47481104 -260332.856928406 -1277976.16438104
 1173836.08375327 -195288.134949026 -1214072.23542379
 1387725.55377723 -975087.396120931 115854.897694409
 428980.577550238 948353.504202307 -1344098.69248946
 -8940.42529423385 1016622.21903541 1362497.46148721
 1530609.14498814 -567748.803689034 474233.003056874
 -411796.781620035 -1223794.74283492 -1105780.19427777
 145650.518041346 1051606.59283927 -1327746.02258537
 -320806.011652028 -1348043.11221304 -984816.363848050
 -926054.509741079 962832.509353167 -1051368.91903884
 769619.960658162 1478497.85879853 334259.177412831
 39442.3264785227 -1343050.27195329 -1041470.24436042
 1166021.80941078 437816.521415473 -1157026.28905054
 -1486655.36519626 -185814.068889660 803323.693747322
 691845.418050993 222432.932541966 -1536838.80353231
 -196794.374948656 1564518.84891768 635258.014801766
 735509.994238286 706903.246781929 -1359894.42533778
 600883.776773855 -397361.899612350 -1539818.88790418
 612231.155193381 110237.622126168 1582093.76437636
 678764.973525407 -481153.147193664 -1482487.69292048
 81868.1824781474 425854.323258040 -1643759.62234755
 -1073084.53991287 330503.043187604 -1276423.63995804
 497003.139714389 -1584155.80719748 -365292.016935156
 -1639181.44204622 47151.3515588157 448175.133287696
 -838116.169313513 1478646.25166095 -34154.7827436449
 -501407.582602134 431841.169282273 -1565919.42341297
 337654.811572707 -1468138.42219593 787755.546787109
 -1042205.52463718 -393726.221357070 -1284051.13100360
 -1110828.90146172 634784.188547601 1119423.14861151
 1189643.86529533 -1176715.23499002 300147.846081842
 -1052308.88927920 1004535.53863243 -879519.387602359
 146889.168230109 -1507262.51783870 -772388.033682032
 1212757.95154117 -413264.065207544 1117332.07390721
 1521195.40429843 528251.950632296 544898.539725057
 -1110397.60692980 989105.446286184 -823824.963600626
 741794.775078348 -1464000.16299794 -443220.074464674
 -904296.948009272 522201.822598842 1341473.92307699
 797744.735567676 1471436.21530125 -297453.863941956
 1682722.71993346 -15393.9940471855 241261.834460020
 686142.076153657 -690116.385314626 -1393896.84914337
 641686.166874220 1525580.91456759 -388383.491345074
 721464.986330589 -444090.212956261 -1473863.00457521
 -919949.913987277 608563.611900523 1293577.39854459
 -1622469.40506646 -491846.588983414 125219.657117645
 -784974.940689723 -1047830.11281497 -1084373.73500437
 -144707.525308077 -738914.199408107 1524160.60112847
 1156455.26142652 646699.910285689 -1065077.67526853
 -1594766.31058113 -125486.291755791 575303.055108215
 1318868.42784109 -918654.011362315 -553769.697123190
 17139.8502674176 -14750.0258948340 1699849.59989668
 869447.884939077 -890528.264372770 1158024.08685147
 826354.076098920 -1472653.50447425 -196037.232877836
 -63713.6815042116 1604082.01689775 559340.191524285
 -887479.830817930 -548352.917569705 1342269.95335669
 -693556.601462449 -305406.894703909 -1521744.35081428
 1487568.08653288 679531.203118827 464088.926733645
 -326215.759005722 1634189.47536154 336166.680671775
 1106367.55548088 -290914.473424760 1257505.30866922
 -1546837.59068517 -449592.411627590 -543286.417509380
 649466.871473587 -148092.984579815 1564052.82863993
 1317989.56964747 813426.507659352 700885.733153115
 -425067.610900700 442482.089776814 1585410.71220990
 423751.861723040 -1250691.15408960 -1070610.10492535
 -954857.999211079 -1053240.34759827 -932164.669751906
 -699782.133595858 800133.148565191 1326684.55559985
 76840.2218051002 -1196200.88768612 1205487.04539363
 -953163.061651873 1326940.15306982 -469797.837450814
 -520002.602323037 -1616927.62115900 -71710.2608443861
 -418081.473181201 1577002.36611457 477777.583245260
 1214306.94882164 852252.304342076 -830135.316552133
 1667123.84218254 -168112.195653931 -287117.370597723
 58936.2367170501 -1680122.49451501 -252418.151934999
 875724.349420326 513448.885964847 1363626.45373790
 472136.765684901 -710052.911432122 -1470684.10525693
 1246161.76583194 -744411.199922673 -884834.910482355
 684186.618449769 831925.467589265 -1315214.31238816
 869522.068884964 -859867.765292904 1180914.39060255
 -26945.6434881678 -1666488.62445639 334797.844757775
 -1550894.45957578 -261501.277956404 -645246.818577448
 798894.829184326 -1355988.69465511 642698.772264323
 -1648760.79431875 -340915.057279226 -235297.188333643
 -48276.5670670846 886659.760524152 1449656.45659221
 1521214.09731548 697771.555511161 -298366.429827819
 389401.317534543 -4002.32303314699 1654796.23981707
 239586.953393472 -1431598.17954418 -884943.356429900
 1251835.48796368 -942697.561698541 -658960.710697044
 -354156.850174934 -55923.1001850776 1661759.76974407
 1075809.57382211 1260078.90963562 -380571.809733955
 -1657598.02338614 -337347.262139334 -169013.660966921
 574318.328013039 753127.023838545 -1411721.69497830
 887206.933633948 1346734.56158503 537745.179006036
 -396587.776160000 16523.0356978177 -1653010.92709389
 47710.1746234849 252047.808464881 -1680534.33213530
 1603866.83205131 480627.930384185 -294292.333539791
 1601994.50176052 11218.2930229939 568759.849348308
 397194.233542048 1142180.13575821 -1194847.80550508
 -1093132.56191283 -1041662.75074620 781024.913683129
 1415533.06094733 -147569.873798753 -929779.159646049
 80163.4418392837 1075870.04759435 1313802.67288578
 -1360207.32773537 852184.658087158 560015.476657464
 680718.672206427 429333.425596174 1497429.43038241
 -542772.127658571 -1601662.09307149 173427.094350488
 -1435903.37828088 -391898.559555034 -821338.546069910
 317188.060840727 -1528956.85383004 -672073.413539208
 1518270.16191332 -744091.192736913 176589.955362842
 -611828.012423495 -414472.490950733 1530973.23211708
 1032230.38105334 -1210064.34210470 -600203.905683047
 -332617.194241156 -1667142.82117183 784.799581216266
 -1391782.19943362 -581900.721045509 783794.526764779
 1552227.41410511 507867.744284542 -471869.059396659
 -789154.609487898 1418433.90933494 505252.656769671
 -674448.666138046 -430977.144600845 1499792.55151381
 1371416.79951275 77209.5676065068 1001626.00040345
 377398.902095864 -1657472.84290033 18810.7348269883
 -335502.735531040 -1556500.33397767 -595604.419710421
 -357445.761098468 361246.177186565 -1622261.91699763
 754909.563208490 -578349.206175826 1409121.62253375
 1522311.13547897 134911.894127940 744558.652907566
 290221.274345650 -747578.026256750 -1498965.87905637
 950836.480926286 699692.796201785 -1223249.76087594
 812309.152402823 621620.341535090 1357844.61257995
 963079.956576188 -1180128.11679890 754834.170650679
 -972635.512531906 768690.256471786 -1163226.31046892
 1285200.91959065 -560469.496589015 -961318.126156269
 -1369601.73136259 -191459.370094854 -988703.396904997
 857684.800442241 -1412632.87165831 398553.826980424
 718454.398912716 -728362.703731582 1357685.91673324
 867704.948820690 -1326003.30365679 -615470.032157029
 1009024.66414858 -15427.3638403393 1368075.73751777
 -165572.584712400 -986315.856409269 1374687.87387803
 1612970.47050310 -529140.106237204 91307.2245569789
 1144688.79219804 726065.520526913 -1025922.23336770
 1483373.96613513 -735297.262879123 -385926.951371651
 -244867.063153768 -842581.224571301 -1456055.28788655
 -135561.627938938 706333.084790298 -1540362.49576558
 1557599.15000326 225358.892338337 -642727.203059872
 -640577.651549530 1098500.86181933 1128253.57474173
 168735.073421955 1525207.09988111 731622.701581586
 1608165.20009292 -544797.611254026 83667.5085204327
 948593.337644066 833641.518197756 -1138074.03050690
 390732.581299708 1410840.23755433 -864209.392455623
 710506.802027020 -283033.971822725 1518246.30909072
 365581.900809034 -1063904.55730032 1274541.86543890
 -68687.2715728164 -692315.054854393 1551122.79447690
 683712.416109311 1236155.55638034 -945757.248181576
 862780.471535265 -329032.304142512 1427356.85824115
 850648.591435101 -1446104.18276797 274189.107133131
 244917.610625169 663690.732459353 -1545810.45916154
 -1272544.51547779 -1123133.45358545 95925.5000747799
 -1223598.69016830 783592.786385015 882489.994585656
 119926.072334544 -1139978.80047508 -1255414.70106169
 860313.847565639 1107589.14288581 960784.249583793
 132726.522030405 -974979.146989413 1386289.77248103
 1252779.31353550 241914.123577031 -1123397.32436547
 305323.382525753 1338848.77585491 -1002128.52842080
 -836067.646554774 -1442148.36293577 333465.125112126
 1096673.77577610 -768781.778293673 1047034.48218701
 755301.597569773 1449220.49425402 468272.843268411
 -1622803.58581021 374451.942009960 341019.449601487
 702225.699748274 1046426.91694732 1140995.08066476
 27011.0286759872 -110241.438804056 -1696206.71779718
 1126436.50405078 -259921.060782589 1246427.63307923
 -588523.621947414 -1567506.48882446 294216.508549570
 -196598.333977588 -594104.083584145 -1580629.44200906
 -743157.063105196 1522012.91045489 145582.553781318
 -515334.373268649 1606365.50355502 -209810.277908936
 139790.421173903 -801265.442043535 -1492793.46512999
 922284.495563848 -1413289.99668310 204945.589164613
 -1670373.79801134 -110301.931983461 296116.292557288
 785514.197182620 1453402.98730957 400733.330912427
 -1153571.05456513 1004449.91493797 -741858.605430045
 -1318931.21391090 874228.218620520 -621406.046590407
 585193.652740902 -1594834.26794514 63655.6877243423
 -331328.274838165 -1546219.20524921 624041.459849645
 -40039.0463519757 -268259.407366475 1678223.39547708
 1175885.53463115 9998.75984661298 -1227677.98475282
 1468948.35869399 850835.234045726 90940.2221053720
 1665795.79026327 -330656.598761909 76095.9843642161
 -1409123.08967014 -933186.432593081 -183126.186501750
 1435529.04599717 530342.453120511 740265.655367424
 487132.228822381 639975.690338737 -1497709.35345213
 -554204.534646142 -1582414.77365181 -280750.454863628
 1528935.05739506 -637323.421868464 -382330.284186628
 1165328.19066246 943006.040659338 -801716.792469356
 79935.5235342366 -1383078.88524261 985242.665171056
 1150640.55874449 -803286.217493575 959561.127472890
 778372.780323752 889247.977492981 -1222036.76269403
 -1067745.72125640 350976.213238244 1275435.13064349
 230549.505938588 1655787.16447559 308570.561248749
 111026.501623032 963059.457512144 1396491.88942642
 87952.3125089737 1639814.27564117 439628.857250910
 -134210.925463699 1660431.74873104 339048.426175604
 958703.274756681 876399.944130917 1096727.48160067
 887327.694392553 -331734.976543465 -1411595.36273739
 -420030.583401242 -1595056.28798022 411545.559060453
 946684.406662385 1384283.47767418 278474.213564864
 367186.971747590 1590920.43589101 473440.486696250
 -1039035.22898168 -869598.504919366 1026744.48290555