# OOMMF OVF 2.0
#
# Segment count: 1
#
# Begin: Segment
# Begin: Header
#
# Title: Oxs_TimeDriver::Magnetization
# Desc: Oxs vector field output
# Desc:  MIF source file: /home/martin/PhD/repos/ubermag/oommfc/docs/ipynb/thetaevolve/drive-1/thetaevolve.mif
# Desc:  Iteration: 101, State id: 211
# Desc:  Stage: 1, Stage iteration: 50
# Desc:  Stage simulation time: 1e-11 s
# Desc:  Total simulation time: 2e-11 s
# meshunit: m
# meshtype: rectangular
# xbase: 5.0000000000000003e-10
# ybase: 5.0000000000000003e-10
# zbase: 5.0000000000000003e-10
# xnodes: 100
# ynodes: 100
# znodes: 1
# xstepsize: 1.0000000000000001e-09
# ystepsize: 1.0000000000000001e-09
# zstepsize: 1.0000000000000001e-09
# xmin: 0
# ymin: 0
# zmin: 0
# xmax: 1.0000000000000001e-07
# ymax: 1.0000000000000001e-07
# zmax: 1.0000000000000001e-09
# valuedim: 3
# valuelabels: Magnetization_x Magnetization_y Magnetization_z
# valueunits: A/m A/m A/m
#
# End: Header
#
# Begin: Data Text
 1191459.81252334 -389257.127022261 1148434.76271150
 1532644.03680769 288467.367016140 676600.941918214
 1068399.59598929 -1314998.09780824 138932.739304494
 1660541.11730271 363942.106395240 12220.5130693064
 1615392.18585489 17864.2284173560 529328.778002868
 1080516.66085289 1256891.29368246 377767.152469017
 1092868.62257920 -1148733.89008488 -613228.035523746
 1633027.38619771 471330.822931406 32692.6793497469
 761129.202433462 1039462.30181601 -1109144.02144463
 1317240.85363285 1074252.74423654 -29284.3818587851
 1099343.37403252 -888536.431178121 944429.540219940
 1438562.47045792 181289.819647315 -887508.884396230
 1499219.90960512 -698764.083265793 -392515.501071392
 1212418.22271893 673255.453236508 -983244.195460306
 1588689.77100159 116314.067944482 -593747.293983818
 1487133.24458738 -290027.186984197 -770920.841366375
 960033.291458655 -970223.934051406 -1013410.87278797
 1396293.24289659 527715.380979321 -813561.095750759
 1358338.21701195 376700.993221786 -950270.303603403
 507460.911256272 -476518.520180397 1550939.56151490
 1322093.57799694 308923.541439368 -1023051.71744337
 1659070.78205258 -119076.757784190 351147.925944370
 1276349.95708298 -405755.223584614 -1047040.34573080
 162514.305273062 1668181.29019421 -284183.538628794
 1030655.34262514 -1347703.48430435 -106980.760476631
 991619.411443169 1015526.60438143 -935626.345633030
 1029141.70795685 1268833.51033763 -470030.709622172
 1556909.18571975 -651125.606380393 -205107.854889131
 1517412.21620737 -307895.712249782 -701897.710840278
 855764.888973491 907393.121110316 -1155120.85019788
 1045295.35622619 1186838.01863662 623516.748588737
 1384617.45279337 -585678.588938650 793608.908643813
 1380927.21320755 -473323.969207535 871208.615657836
 325560.076772611 1665904.42197095 93664.7920482452
 923284.284821639 1383589.83058311 351034.628075899
 1603558.24530710 -371714.334540514 -424769.828736362
 886352.851458227 1245801.93097791 -743206.681538574
 1664215.44109960 333056.413987896 97264.5398241518
 1439583.56118592 -705061.294827930 -566116.366923642
 941732.527222999 -645615.381912274 1259492.20950685
 1690478.55947727 179475.908815162 -8404.64768050505
 1227909.83462353 -1020880.84415010 583129.265328182
 1087404.39751002 1162283.17259547 597201.392310233
 1056105.69510720 997105.297852086 883414.843523376
 1193426.69253902 -973299.498335060 -720014.455463294
 1592148.09213843 327951.142739417 -497506.282046627
 62714.7931042114 -1213253.07057719 -1189152.57282694
 1667909.07898121 294152.882217173 146810.715328894
 1224519.03480506 1157350.18789457 226039.102768716
 1626923.70908565 -432376.662325855 237001.406516833
 1041636.38009169 -1092996.07729752 781251.065075571
 975780.804340179 -1361395.93979125 -290607.840570647
 1421784.72610747 -929386.660371965 69055.2541821079
 1166954.03116651 1230900.61122753 114463.856408611
 1506447.87257638 -287192.906452014 -733576.881924270
 1333545.83245070 -509934.039378981 -922834.106563035
 1383475.23203176 123066.931830094 980229.979466350
 1566994.06634108 -652964.450132155 -90371.5824552901
 1335229.65601553 -838228.063600113 636031.036263047
 1221122.77822260 -910817.412640874 -754500.365365116
 1538815.49978052 -672212.826914513 -264908.989969842
 1096821.00950766 1298314.41384790 36923.6495673985
 1575958.11451584 549647.420234330 322867.983425790
 943997.439479387 -262297.795033707 -1389269.12474755
 1448940.71609427 -105601.836610264 882847.129093570
 1350372.72420766 -564357.895427442 -864866.273816187
 1474045.07021678 -683213.759694489 500409.921498082
 1253178.90981236 -860323.044976779 -761174.670022194
 1523572.94959268 265489.915877351 705861.581216111
 741683.514135659 108559.940488405 1525817.91317986
 1675791.44783502 -115054.074199017 -261697.503567057
 1264384.34891721 779042.450600856 -827299.872098993
 770381.127837554 426647.427456859 1454126.84815190
 1481260.41540617 557025.964682863 -620958.659187432
 1023465.85739555 1331109.37528433 -265829.775938946
 1154650.70140846 877848.835547435 -886658.434609945
 1591365.03058437 -132356.153177913 583128.792076982
 412305.073765500 -64490.7986285125 -1647982.23990414
 1519551.60470482 -745460.449384586 158907.643121214
 1539291.72476912 598273.323361606 -403298.917195629
 1102163.38306046 120224.557602107 1288713.28571955
 1646932.22917803 217911.152631906 360733.921406511
 1376313.40182750 -981477.263602293 -180177.137788793
 1528254.57736857 -625096.252887401 404589.447932275
 1598462.05272863 577274.107685147 40910.5192205436
 1545864.97778199 286231.888917987 -646817.421096181
 1592315.99010772 -586688.985059962 101616.054128196
 1030506.69489448 -1177916.89457168 -663752.771188388
 1220917.13293061 -966480.984104526 682111.326603536
 1451667.22026351 784702.633589223 408538.931376864
 684529.766413823 301085.061304617 1526684.90028317
 1421937.31830321 778403.627409290 -512037.162374699
 1462287.52225622 -353844.291332290 791523.480223628
 1608821.16952675 521779.683168990 171582.069910159
 943849.166120839 -511295.431628482 -1318228.25535218
 881287.531539909 1286904.33498223 676172.699357383
 1652588.23310176 -33768.9618635779 397255.319697868
 1473388.66677805 279115.069798702 800762.520614743
 1102786.18203549 -1138682.16792502 -614219.469864928
 648351.838963241 -471623.211609904 -1499070.19154666
 977129.638198052 1386667.70500574 111222.057385415
 1651780.57468970 -324021.863218780 -237972.194245437
 927032.159844652 -889261.913585210 -1113474.12348044
 1548777.18534867 605744.956421528 352650.362134109
 1666189.37966038 -330861.342102030 -65906.9299042715
 1277021.20003973 1050241.79845960 395232.867329431
 1169859.04573000 -1089196.58734394 578861.475002445
 1061954.59472149 1276242.55577236 -365318.186770850
 482851.507128203 -1587182.34941865 371088.415014444
 1303119.35447446 -88465.9014442297 -1088142.33089046
 1428117.82166337 910343.091592380 -147495.569552125
 1672141.72081177 -54895.7309470113 -301543.569396610
 1553041.49327355 77711.3662131776 -687039.346567543
 974704.732400211 -1297319.62280995 -506865.347906990
 1485659.76761643 -38577.0582233729 -825425.263403490
 1194226.97554370 -1096435.54658206 511518.350672828
 1312520.71759222 10119.1251116829 -1080364.27615790
 957864.503936167 1251048.57390039 -638257.830222951
 842392.361694510 589785.355100426 -1353709.10607405
 1495572.30448524 61595.6304240518 -805896.680951949
 494046.366689007 598414.036825965 1512553.74386864
 1655095.57324102 372714.314746817 108363.660979049
 388713.744875455 -1098986.33733534 1237388.64343227
 1473712.57076281 -639465.395153318 556107.244312723
 1608935.63373402 -12842.5548389766 548781.555162081
 1058996.57988077 472002.468858999 1243277.89057469
 265037.632102835 -784719.975517805 -1484577.25079992
 1431665.56875436 -208117.305383322 892760.262580744
 431745.928143216 -1275010.51790427 1038240.64299431
 1280068.23331572 -405999.113055901 1042396.29616274
 1294124.79763624 -1100208.92078180 -69147.2253609288
 1624948.72200241 -233452.353715397 -441635.199466107
 699354.890365084 479998.700803544 1473263.03983686
 1601086.67144334 505451.451215404 -266533.864622735
 1202711.29159701 -221441.048686430 1180868.07519795
 624494.896867634 -1483774.57212539 546277.532853395
 1571062.41030927 551727.981459669 -342577.199164881
 702709.684810137 -478975.318377549 -1471999.23344381
 802367.608988126 -1234748.06030421 -849472.452538441
 824678.798525413 240336.275278181 1467018.52546179
 623128.073293295 -1563073.82407408 -241891.762505920
 1439632.63855706 -200365.517446036 881652.723820334
 1606900.99003498 418192.273244333 364670.304279550
 681745.208976072 -839517.905378928 -1311652.83386510
 1602751.75083320 -432078.524045594 366735.564487110
 342992.696578379 -1295734.27099267 1045671.41544033
 1517629.22857633 -145935.759718479 752000.185243469
 1329632.14210491 -965261.283025028 -436290.066554779
 1625701.64588867 -424267.319970218 -259020.075978981
 1012526.22679936 -351181.365543980 -1319644.75846272
 1135659.78290400 -1201277.24116811 396496.970159888
 957365.322005296 1049607.03495778 -933689.837359725
 1061679.42871619 1014045.06733664 857058.569790355
 1451615.29209208 506685.883330441 725315.420626147
 1548153.43386480 92647.9369770944 -696158.965313606
 460301.545247742 -961747.662278650 -1324070.96544864
 151374.732346686 891671.855376567 1439446.76620439
 1037492.59365157 146004.825703670 1338764.99393634
 1032189.18202906 -931167.508543862 978525.709184179
 103987.315933773 270868.854229616 -1675057.22348021
 1634047.62092335 -466450.827543753 48083.2407236400
 1333853.54153477 -1023530.66562519 251435.292391487
 1521393.62822467 -429419.758816549 625268.021519826
 1645197.08147622 428119.873355406 -6319.58387024747
 1522015.68317188 757131.466218045 14839.2399184454
 1642454.26233460 -47194.5403800199 -436023.705201008
 788929.708601210 375614.623687398 1458253.60255293
 1552542.12145073 185492.099803684 -667237.320622653
 122973.421682930 -106160.660803500 -1692219.68185498
 1322549.45122020 1047524.31221016 -208700.178260070
 1650507.70985055 -396606.553906849 92344.6864850071
 1450879.44806348 148500.784878664 -873439.376303497
 895672.678871042 1358666.62349020 491727.016278053
 1565545.71537278 -660727.922475856 -50052.2281090842
 228050.900988821 -698501.294409337 1532999.91137204
 1430427.67865200 777607.172731903 489084.594995731
 1185764.63529982 -517014.351349515 -1103022.38878951
 1663457.29152724 157820.808791205 313053.400520326
 1507009.51495429 -118861.766627170 -777685.156262796
 811802.221230608 1403269.94822514 511674.316350990
 1541094.29313698 -315745.707823681 644463.364087958
 1428073.16183841 -184331.079291063 903675.327561974
 1369685.77675564 -828981.970706072 571620.298097943
 1317209.36702219 169590.702956925 1061224.98882169
 1247630.47478119 -37112.4498404008 1154140.74725057
 1500287.18750723 799288.049496945 16642.3836340366
 1526661.78748546 279598.750818031 -693634.143603606
 1503780.28706317 -9231.10312108946 -792817.529432455
 702125.052127821 1211976.99598771 -963396.165848248
 991779.714731125 1368979.56349790 179632.825989414
 1030199.37156994 -146498.288513912 -1344331.62064998
 1131927.35084348 813634.999165237 -973004.912909411
 1473411.69807410 -716327.159464592 -453798.819513425
 1469924.44579245 180422.297825602 -834727.451393025
 107345.029936722 1256879.05597378 1139619.27116135
 1128151.19687820 723441.504646052 1045900.21815551
 1050235.04112946 -1248643.64318546 -477383.923814297
 1653841.12413351 -110957.142437068 -377489.137151014
 858631.633822734 1363948.48223728 540736.770713368
 963789.688635201 1343065.01676291 396592.734209921
 497461.593469943 -1516673.18615430 -585008.042186529
 699033.214944395 -572463.811430705 1440013.10723435
 1200838.49929095 -805245.850974994 894184.554836543
 867708.845239144 -62013.7254529041 -1460560.04934724
 1577078.17452493 -353382.131531309 527205.368477504
 490344.402234863 -196191.944516179 1615880.90158399
 1310044.89297583 412133.205330858 1001962.37426944
 1150410.36715676 1214200.02094074 303766.845270758
 725982.785200285 -1145009.21932361 1025623.16825274
 1354801.57660549 296868.205795974 983047.280864338
 1652732.54196274 385534.797090082 99187.0201694701
 1554736.03850691 -678728.497614064 110106.662352482
 1307834.71998301 -833550.824478136 696248.065145448
 1669744.37550162 220214.688224937 231212.481433648
 1269872.33942476 941222.173670642 -625719.634784301
 707405.826053793 1383750.47591261 689065.757150062
 1017415.66852684 843051.700575357 1069639.74664047
 507059.171205244 -1557913.72920642 453647.229956053
 1025693.69054243 427420.826169523 1286570.59290892
 1183223.48144311 1192762.35224246 -259422.751574862
 1461540.38695974 59984.6790616128 866199.477928409
 1628724.40496965 -469147.984823488 -130984.659377774
 1051712.75581377 1001255.45724682 883961.418044969
 1005716.25397110 -1265513.78142478 -526317.095981395
 974218.327077607 -1320084.21352085 445282.292932416
 1019520.51237435 -1360352.56201779 -4339.56905258203
 1486386.27206425 -807372.032766160 -169724.043452809
 1475406.81768546 -417946.273388259 733822.618136115
 1194069.11442573 -628659.626878339 -1033917.80307127
 1669116.62625726 -186713.080743579 263035.954635164
 1537499.83795621 -252029.881772109 680128.801756379
 1415106.52196355 591317.545661443 733360.137783031
 1597713.17879302 210389.991455892 541339.680613105
 721668.249032186 1086627.63294776 -1090153.80825514
 1070857.23563685 -1319110.60311828 56674.4883092600
 1421570.26949667 99963.1106497846 -926900.936126608
 821712.362478628 -1278888.81267689 -761073.057044903
 976781.871040586 -874878.701646558 1081889.28907337
 1591264.14710574 265730.528889314 -535971.734471192
 1545193.65421657 585520.334129545 -399427.727241951
 1457013.57948511 -650435.285770711 586553.806756348
 1455057.78218562 -422626.656190621 -770839.516357463
 1645594.22289792 402301.319007487 -142032.750764828
 1516688.98799091 575396.548226040 508501.058009387
 1606064.80339374 -336115.399910781 444502.289355893
 1605123.47064040 -246359.581747390 502877.321501537
 971042.659268891 973298.184233942 999883.392424793
 333540.895106358 -1480524.05888810 766028.055847280
 1490680.65622027 616671.945419025 536271.286667328
 1062300.27674874 -724699.566404590 -1111903.17045710
 811921.940813611 -234167.978142116 1475109.52814979
 1650876.12364481 262759.930906015 309136.285624575
 1176037.22294954 1223992.32417140 93697.6019256784
 1644611.11538703 -329244.385782704 277222.678682664
 677100.744282511 1540262.12318643 -243160.798586661
 1500356.43885175 -410672.910476434 685768.413531059
 1638382.70161782 276392.498996902 -359596.036599042
 1066724.48666961 -1318224.50308025 -119929.266729508
 1587759.08100753 -604437.453069087 -60633.8684685873
 1580895.28725943 -482397.828572562 397570.654990302
 1423587.48364956 -176118.567890135 912349.125302718
 334924.783739521 414234.983872790 -1614383.71131926
 1571005.20582039 305430.279681860 573284.386268019
 1621353.18524455 106509.492564482 -499869.559676344
 1022728.12718743 -1357857.68970659 15801.0241559745
 669960.470656432 -453709.840443611 1495092.08694396
 1698790.39283767 44237.7451144953 -46413.6090992051
 1476469.18334204 -785419.033494447 305214.174746074
 1300693.24296074 -230851.715129173 -1070002.13707179
 1176559.95218100 1219781.34855875 -133566.989305078
 1416662.37720266 557939.425667402 -756155.609847900
 1085998.20766755 567453.484930011 -1178390.61239627
 1484567.32648640 755775.675584740 338914.415927475
 1193746.96599125 -953195.476783778 745913.241755122
 1652936.40578942 -363083.658382974 -161156.741811140
 1358642.43122798 -828490.646567407 598075.239929941
 1497320.14090600 -713351.961061392 -373043.395983766
 1355993.44287615 416561.191271921 -936887.697006963
 593571.195135108 -915922.289195840 1303364.72119669
 1118477.33304246 -13265.4361539567 1280168.92778800
 842952.639061521 524323.338519111 -1380041.98667410
 545170.748027979 72571.1809073784 -1608577.71935220
 1105713.52517991 1125255.25036136 -633402.101171456
 1318567.09831695 -870007.323768460 628066.926231003
 1665645.08791550 21990.7323395520 -339327.052847434
 1401290.02109833 496897.866746921 824305.032613897
 1303294.46199250 -986134.561885277 467933.938921959
 1630682.79152969 123185.731846795 464433.966111772
 673141.371878857 1513705.63259546 381544.166924135
 1354563.55470356 10120.5783597401 -1027158.77553693
 714052.993059100 -1537366.96735199 -128961.741606933
 1254493.27722009 -1094491.56902788 343998.288856920
 860407.655768533 -794451.270370257 -1232292.92171220
 1238561.99631008 191443.498287495 1148613.75938992
 1201195.70579486 1202951.74114794 -5998.73729288087
 1578742.40184307 309399.780689074 -549403.498653146
 840481.494197556 1303260.07956777 -696494.093956625
 683098.922322333 1430397.95520357 614278.073897735
 -111111.791004657 -1238744.53035348 -1158950.45554979
 -574829.470372284 -800797.870454295 -1385024.85561357
 1563443.44996607 -548520.386820318 -380486.483335072
 1604993.74113916 -40614.9129874899 -558878.805956293
 1468278.01484973 478570.788548192 710724.750840497
 1261637.11420483 451808.258051284 1046011.99324748
 983101.465260218 322845.711131023 -1348807.67932553
 1575077.70249552 375948.513791355 -517487.145810903
 1662428.31585169 -332113.524417197 126620.304665961
 1675165.70120544 81393.0572320025 277839.960659570
 1668379.09893267 62164.2212037218 320385.380201338
 1075303.29586660 681475.905362642 1126638.10174723
 1413443.86693345 652887.299624817 -682579.379278935
 1608301.07530478 -550236.946243465 -24636.4397218128
 1456545.68215686 303551.450969219 822393.575123664
 445310.469111364 -1398217.91487100 858303.704194277
 1096181.31665464 -432144.958956977 1225413.09584375
 1477382.49940612 -533190.079417007 650422.393264411
 726724.827795848 -148639.480483845 -1529633.07021867
 -996015.298665916 1189127.84769241 -695649.686743167
 1452838.57693785 -331955.643853542 817964.253421256
 461268.831642376 -54192.7814824845 -1635326.94204874
 908865.565315725 -527760.351508384 -1336200.73176117
 1380857.64220523 -929241.710711763 346037.591941819
 1462494.86437583 -835130.974323161 -231657.133281863
 844916.130253391 -1146762.28883564 927929.407736430
 693592.120756430 116016.296991281 -1547730.65772344
 604456.948437362 1533661.91856080 415346.743146246
 1222148.28575266 -71295.4619797344 1179521.31169086
 1617024.99067025 -238686.031812416 467182.146240127
 496379.198090545 1310554.35868394 -962317.496794851
 1165821.73624064 -180911.997049905 -1223981.42495394
 1005566.86060031 1370639.63674012 -13500.9280922689
 1484179.90896464 793686.228639872 239316.042699014
 114873.569338315 -432095.319725809 -1640151.73009650
 1655152.03938107 386363.009311719 34573.8567169653
 1475348.03899221 -807331.172270040 248122.030708538
 1649576.61493600 68160.5055031444 405279.085255890
 1686541.51717590 126504.724200713 -171971.699988446
 1577742.89349263 -384789.442919217 -502657.384956623
 -662496.281808592 -1564090.09719057 -68708.4016709820
 948644.914951230 1410025.88542916 -43587.0136266998
 1466650.30015520 -527586.661238651 -678667.232108426
 1151228.87538350 -1240748.52423372 158792.871675932
 1190180.14389845 -1201275.79993885 174377.973239515
 1582511.12892871 603669.866393466 -145743.676450358
 -537.666571247697 -612737.202925376 -1585734.16153712
 1523638.72393299 237550.333459923 715608.047750263
 1687570.41563044 -144807.599876460 145385.182556271
 1512433.65264653 -638268.738513140 -441766.299958614
 1465863.11930281 -613974.864620209 603556.278305880
 1457994.44816781 -842761.976587176 232388.553785965
 627604.241368036 -902476.272799904 1296784.28940593
 1506014.31935258 502992.038693558 -607387.750054192
 1614115.83683955 -123627.765019876 -518985.781096131
 81010.0288537118 191974.477822101 -1687182.02192000
 1173350.03168116 1010519.87372262 -701497.888781879
 1339911.60995743 1045806.74566933 30415.9204006782
 1161989.17477501 376590.688546098 1182353.84340141
 675393.236694693 1426684.30538802 631201.923782379
 1696208.06099107 111383.903550201 -21721.8751224033
 1219925.71779410 -54531.8030852846 -1182711.93682858
 442646.869926124 -1500512.29882425 665226.720465855
 1686131.27655887 -196859.874206370 -90595.2986495787
 748412.284904041 -552402.124716469 -1422930.40743862
 1647051.22348920 320984.061420726 272381.165862428
 1413040.45073070 458709.026688730 -826379.279406891
 1532815.54871761 -122793.127912517 -724843.666832365
 1458737.88900008 304182.611343939 -818264.450010850
 816388.320421350 1443206.40055559 -375053.857032531
 1344526.99710920 851701.856805767 -597370.154224442
 1686891.28089827 -133025.068268064 -163407.887330095
 1461124.15433457 510463.955775128 -703237.339363102
 1578940.72736042 -189421.313919121 -600887.464768312
 1497226.09221508 780530.502867559 -197702.207584203
 1115240.92379292 1114290.48045035 636077.359348079
 1492786.19427686 720972.948278658 -376546.658499054
 1217224.02031000 1064773.01757700 524045.900108316
 1623869.83139363 495430.324727983 87152.5331217551
 1554142.68023292 -439890.447476191 530223.465811950
 1635945.39355153 235620.513740520 -397700.443578064
 1029333.12336537 621252.749568262 1201881.16812636
 1112799.31033549 -125744.668467658 -1279009.76277306
 1084434.13681515 1301544.59026810 141365.775397821
 1697666.35743224 -6669.31009945535 -88794.4769991499
 1645438.38120923 -14097.7392321977 427005.605808727
 1685200.86923939 -52731.5914705278 -217525.652684404
 1696251.63035115 -101768.056168798 48720.3168575796
 1352660.27705981 -910663.499886042 -480626.845733545
 982549.152784500 1380235.20560819 -139813.946236339
 763791.698347615 664601.444857027 1365623.35987241
 710271.013648442 1544161.98636493 32845.8069824106
 1274414.54309114 1124641.00411700 32406.5458897473
 1430092.36322913 -776241.562462416 -492224.409532518
 1284348.73617665 1040331.41857303 -397691.920223771
 1230921.78407564 815463.216539803 -842526.737830087
 1025487.10048658 749814.099741883 1129670.31587269
 1489400.63408770 234008.645735281 -785446.182052144
 591639.440542408 -883704.185958146 1326284.16416495
 1380003.66529317 539709.152463205 -833249.011115437
 1091697.20842119 -872298.389543909 968138.794142903
 1658843.69649463 233712.768772938 -289164.196111024
 957459.885554972 1253740.97881482 -633564.618325167
 141420.039509412 1534488.50083368 717875.625184725
 1649170.12849519 162030.992815462 -379452.032075716
 1614210.06530166 529075.863031968 66367.1321949096
 1318832.33691566 487064.525611225 -955745.476053483
 1274741.36256001 -925154.010545290 639628.419749010
 1161345.09920580 -1185542.72344949 368464.396416562
 946856.610588829 1349118.83549088 416342.319141300
 1447678.98380865 504008.642426607 734983.570019116
 1571035.89413844 -343932.296072207 550959.885152384
 787351.366136845 1389624.66275057 -582255.204285722
 1523680.71948283 -731837.605120598 181137.474884738
 683926.518127385 505953.331008735 -1471820.55449818
 1515025.58430561 88986.5795733408 766014.926457237
 1674520.53050978 -215023.183052772 199364.048040550
 1485235.91124701 -492728.015989831 -664299.172211571
 1506379.54507201 -372202.992876103 -694467.852591259
 872186.105373125 867518.424385103 -1173329.95399693
 880559.600630027 -990765.539706022 1064423.99215225
 1287332.17054661 293988.930423202 -1070675.67052978
 1558575.97756019 -560258.510815453 383342.305558830
 1552198.26371701 -692961.961582644 -22006.1335411115
 1614027.36594564 189535.214679137 -498991.046387724
 1637259.13142096 -261565.633028732 -375454.333037945
 980549.768410133 -362342.153139368 1340608.18874463
 1601516.16311518 80572.3851615822 -564494.526129546
 1204080.07290871 160990.520024085 -1189232.20208945
 1125520.46321228 449044.502780391 1192293.05181785
 534509.575652349 -342341.301464169 1577054.83317726
 1608532.80468647 -445894.191051036 -322180.984284354
 1641062.37883226 -413993.784848509 -159760.492263333
 1263100.86764841 -972895.277891888 589958.453114709
 1126674.38035460 -536315.056301891 1154543.63323197
 1548160.11565981 -702270.836819369 3990.99401399418
 1024450.96647621 -1351328.77346910 -120044.838624806
 652874.438068410 -1411102.52968778 687418.808897173
 1296368.49758954 1026101.42036843 395657.166718019
 369691.814092056 -41578.2488781674 -1658794.50560145
 1052035.05576655 601104.542058498 1192432.62742803
 226548.033714299 -713734.420373884 1526191.06457669
 1602914.31695077 354683.771227308 441435.289643008
 895859.542281963 -740102.234993962 1240840.18401214
 1530014.63719689 713218.878560210 -200932.927188589
 793084.061314886 1475216.26477854 291126.508276292
 1529514.40993176 -512124.582822096 -536948.863003157
 1482356.13910345 824560.524093949 112783.948185173
 799719.142950187 -1333446.75919785 687291.083009052
 1329680.81275076 -928669.525753095 509432.869120155
 1022542.91279404 -1355585.43122125 82426.5136674259
 1236470.30734790 -765557.845637837 -880376.262758906
 1622651.86150218 71818.6907703638 -501839.627789122
 1300825.26947359 311192.338042219 -1049291.64060464
 1663951.94245050 -324329.212673449 -126785.231875935
 1371051.70452223 -900848.295985270 445746.083714855
 687747.604487006 827316.518568556 1316263.88335546
 833471.069925572 -1480072.10218599 -68648.0001737344
 862178.528195813 -747266.187452067 1260254.51025138
 479894.467917694 -905239.610389202 1356555.39785311
 1490986.62342701 -98883.8298875481 810666.933424883
 353934.606771238 -826792.464531173 1442617.24470636
 1449941.44407274 -779618.406372714 424104.879959104
 1053058.08460703 694652.257577728 -1139529.24994751
 1186987.49333922 503408.062511505 1107989.62687143
 1219823.93057059 -604389.499997202 -1018205.73102908
 1317379.59215167 -1009304.04949070 368532.693073472
 1509624.58389848 -475564.931349238 -620380.215480916
 956447.286199125 -761868.096119495 -1181001.94446816
 1279562.29632815 -900678.014094764 664454.245785032
 948184.751092410 -1030912.83300226 963412.896190978
 958026.882281870 1112739.81901289 856734.841131404
 1419068.80833338 -417070.323614712 838031.062893967
 1496133.80974038 542652.294688594 597588.579560339
 1516367.95537822 -725511.014891048 253499.489494216
 1677204.44314538 261176.922116904 93658.2684386865
 1141196.47788044 -1076382.14282488 655035.939075860
 1514864.90716013 -694664.569992625 335597.151733582
 1614457.82443897 319293.511830680 426119.216194971
 1246649.53168888 87715.8064107903 1152462.96358955
 666686.186574781 1308371.73615497 -856558.771282626
 1525520.78939533 729746.312365767 -173944.360964085
 914604.774915642 -1405955.23448058 277106.449470535
 1559501.92428861 -659751.718496060 150603.512846190
 -179174.883818062 -644161.256293004 -1562994.76547422
 1015908.22962697 409912.123453020 -1299962.50716028
 1371890.97199907 675366.336993075 -742829.369238990
 1607883.01632672 509948.829341030 211339.530759884
 1458046.45036461 -706756.731250967 514388.444087347
 930889.011646858 -150077.532166346 -1414539.63618345
 1179353.08120058 -1222193.60957072 73274.0785489882
 1437578.21695970 -698342.301890645 579384.932072833
 559970.312547076 -1168549.96649277 1100420.02202599
 1633144.50271247 229503.660099438 -412513.155258101
 1264708.88599943 55604.2377757189 -1134645.14382933
 1571737.80485911 -83874.5179959256 -642343.629226314
 1469148.44496109 729430.939309265 446691.561871072
 1466406.99181271 489150.832357524 707376.842684827
 112172.242204733 1466291.14344955 852881.979361837
 1388561.25187771 -820048.869311065 -537975.372787136
 1638714.86935630 -228138.682192537 390597.386880684
 815053.806290634 187738.376669080 -1480014.05222275
 573160.533000763 -1298138.44018345 936121.569844628
 965404.511654736 1117713.12057771 841850.051354226
 1420290.36993200 -385777.347883875 -850853.161795907
 697312.769641873 -173073.737384563 1540714.24434323
 1493325.46426490 799687.350234828 143105.554233310
 1357970.73153034 724672.574844952 -721640.597232825
 1587794.02118010 -18092.1143280382 607110.222038681
 111013.254998409 368085.828709959 1655955.57908948
 1520890.89534196 -121393.650950472 -749769.608596440
 866645.232875532 1446565.87359010 215344.407168202
 1577905.73835015 -563665.431649452 -287219.014073045
 1605355.16849385 -465213.914926037 -310500.879788223
 1329077.78748620 948513.616207193 473153.415585633
 845551.447927314 -937715.944447215 1138302.04973789
 1536339.09607034 11177.3797605518 727693.100192285
 1551183.29522202 -518816.138874470 -463314.362682130
 1133110.65240220 1108540.61022693 614164.444501926
 -151609.620898285 -1663835.42649286 -314111.757816226
 1572552.88030792 -601027.975757762 236310.835536144
 1543118.01845453 -281552.064454269 -655374.103945600
 1056342.40741789 139370.150532231 1324657.19317535
 1326793.29914277 879516.703360274 -596715.937327060
 1643592.37519917 279278.203727261 332577.493390654
 1465813.45769913 -578084.391943296 -638129.566012784
 1479243.07250382 -822207.621337684 160669.100525505
 1421024.07135040 -704577.770115429 -611768.546512418
 1641401.53799540 330725.612947192 293975.441163088
 1306080.50479210 -1057874.32518703 255060.046091324
 861878.026215319 -705127.123979892 -1284508.46900868
 1344711.31733119 266736.181117513 1005287.66167912
 859477.809343854 -743017.545938017 1264603.82004553
 1147630.41040955 1212190.67472688 -321773.537147469
 1124510.18470950 318471.148847069 -1234525.40347967
 1342564.71787856 686912.197602540 784647.443819521
 1380315.22424566 -438011.270756699 890435.853054989
 1401046.07006651 -293795.718296674 916926.379521126
 1259613.94673961 1141379.01396868 25033.0112244343
 1162154.69950481 1055334.25191883 -652430.893770214
 1554851.48740439 -237860.776338882 644871.385003094
 1454112.67487402 -677853.456484601 562201.939077596
 1669959.13421101 64640.9104530890 311541.398149605
 1066537.73151707 1288468.41821258 -303885.508899645
 1641184.64947763 139567.162516663 -420754.029649195
 28458.0455619077 -688828.834530353 -1553932.10159336
 1592707.51016101 328612.232868239 495274.456726836
 1630945.30023962 267320.424342176 398192.438848138
 1104333.65602170 -591015.750626576 -1149411.83162914