# OOMMF OVF 2.0
#
# Segment count: 1
#
# Begin: Segment
# Begin: Header
#
# Title: Oxs_TimeDriver::Magnetization
# Desc: Oxs vector field output
# Desc:  MIF source file: /home/martin/PhD/repos/ubermag/oommfc/docs/ipynb/thetaevolve/drive-1/thetaevolve.mif
# Desc:  Iteration: 1529, State id: 3067
# Desc:  Stage: 29, Stage iteration: 50
# Desc:  Stage simulation time: 1e-11 s
# Desc:  Total simulation time: 3e-10 s
# meshunit: m
# meshtype: rectangular
# xbase: 5.0000000000000003e-10
# ybase: 5.0000000000000003e-10
# zbase: 5.0000000000000003e-10
# xnodes: 100
# ynodes: 100
# znodes: 1
# xstepsize: 1.0000000000000001e-09
# ystepsize: 1.0000000000000001e-09
# zstepsize: 1.0000000000000001e-09
# xmin: 0
# ymin: 0
# zmin: 0
# xmax: 1.0000000000000001e-07
# ymax: 1.0000000000000001e-07
# zmax: 1.0000000000000001e-09
# valuedim: 3
# valuelabels: Magnetization_x Magnetization_y Magnetization_z
# valueunits: A/m A/m A/m
#
# End: Header
#
# Begin: Data Text
 -265384.605176322 -1605291.35737229 492555.244902770
 17774.1088243710 -1694291.12426822 -138063.997050074
 346443.422533671 986463.841016195 1340472.32173989
 239232.331153232 -312651.365243936 -1653788.68527454
 685347.231283329 -748862.189960195 -1363636.53259228
 232473.742389844 -1021919.14459816 -1338520.53439722
 344936.218572412 128483.039314554 -1659671.98979963
 -909077.106293351 1329608.32926658 543801.899185938
 478858.071834302 310960.275317395 -1601249.09186974
 -1435461.89949093 743831.162680986 -525513.402811527
 -107388.039118232 -1339945.58401678 -1040679.41313752
 381610.828776087 -1592587.33953908 -456112.641022650
 -588043.267402787 -1177240.75807928 1076247.79357692
 456623.795996199 1476893.30621180 707305.359089550
 -695769.925383175 967322.638819804 1212514.38068131
 60091.4286661853 -238395.814705988 -1682128.54911018
 -724287.373474155 370263.900097313 -1492753.31013220
 1493169.61655553 -407788.205128150 -702960.365848433
 -882575.743952306 579500.298894081 1332381.12406650
 1198220.11479239 -1121729.11505019 442710.231365405
 452949.792331977 1608351.71648057 -313115.380842939
 -191418.110615531 1149688.86393546 -1237568.02765390
 1350274.94151157 1030340.34455214 71807.7761394285
 887199.036421110 586239.690680322 1326348.70786098
 -432081.969945924 -1121517.33232999 1202291.16462322
 1633236.31429634 -424151.182245798 206482.242004459
 -135550.424618309 554524.068612936 -1601289.83626162
 41352.3939571516 -441296.955188908 -1641202.90544924
 340136.294790263 888524.958265502 -1408840.19658215
 14048.2975665403 -1699787.21880418 22935.9134424001
 1426509.56744623 329736.861393333 -863912.065098546
 -977335.605496099 -1390931.81400949 -11126.6799110783
 -758932.210028955 1519683.81182425 -67697.9516668246
 -853918.466157790 -1282473.15243015 718391.165348383
 -739227.455543893 -1242178.64811212 894726.201217132
 1455407.99378472 -853311.258812865 208919.762614086
 426025.809779287 -173049.233201764 -1636629.45479121
 -1320147.25912643 1055320.39916041 -183057.557442687
 1634115.79531881 402693.292314410 -239799.248986636
 1313452.88603836 931820.117805291 -544566.602180896
 931613.605759937 -1421305.08803014 44586.2793089497
 965628.716238122 1393188.92401164 -128785.885824473
 1118789.85361728 -838861.572738538 -966757.738642754
 845615.244156436 -1271117.20259788 747794.033213684
 385819.717006791 -1052045.55161445 -1278414.37073315
 -1415629.30489880 555645.624412941 -759770.762258252
 1418297.24024338 494435.014493517 796220.418452586
 824118.914982631 -934326.009781538 1156660.24458938
 -189834.374204881 -399283.916753053 -1641503.96411114
 -18786.6819208151 1699381.81512034 41815.1530033940
 -1029450.93544562 -502046.390696008 1256256.42012260
 216207.726822979 -64992.5841691962 1684942.18976944
 1100287.56069999 1294390.57075273 62612.5715434137
 -288449.382795565 11158.3960607798 1675312.64060241
 -928475.528254888 -1187735.66698794 785631.706842669
 -81962.4238087143 1495688.60353535 -803864.268603767
 1585654.97052018 -399805.162053415 464601.062052253
 -815321.851229948 -652642.217474104 1341383.02318072
 173060.530911459 391701.681338200 -1645180.79416138
 -964572.880557721 312155.232695460 -1364609.20002520
 -1309182.54753829 959319.682164451 505714.153087544
 895885.303442251 -439217.513675768 1376400.19571223
 -480757.059263358 908326.295276655 1354184.62230134
 -16690.4137864320 -1324479.84029034 -1065586.49707667
 -1128293.19331465 -1271321.47229733 26385.2988534452
 1684917.75742012 78401.6196253962 -211908.793518488
 -513214.659936443 553739.925238585 -1523148.97761942
 -266385.246714135 795841.715502864 -1478402.80850603
 -379471.153542410 -148204.568000058 -1650465.70690006
 -55612.8786917473 -95224.2638416742 1696419.62594737
 -745381.904026057 1187641.63034204 -961204.023622976
 -523130.803934946 -1381632.32339536 841086.371856971
 238939.775158503 393998.104760940 -1636359.76401646
 444225.432475957 -341136.298754688 -1605082.48723033
 1328003.41334915 411598.268884594 -978260.598810063
 1024231.02576207 -1077641.18323041 -824402.987665697
 -275321.018351783 1454706.27408957 835480.695754350
 1164134.47083228 1141605.46998966 -481173.445557569
 -688313.925778373 1328071.21918211 807744.251827096
 1669947.43156355 -313588.425941930 54202.1672036818
 1335148.34303708 -644418.834680042 -831927.441304204
 -1644644.47634287 -427518.819223263 48705.2938069505
 1472966.46020623 -749858.360770580 -397595.580823008
 -775370.911102988 1245514.55897474 -858774.378749898
 333497.232755769 -1608616.58083405 -437186.792584153
 -618050.056763057 -698415.143668402 -1421348.09755732
 1495157.53774031 -486438.012852948 -646437.929727222
 246636.938894962 1029249.36307086 1330344.30467858
 1125599.89682668 669314.832210048 -1083993.78579741
 203011.291591951 -776381.252526509 1498672.26777956
 -1558223.22818227 629777.800967174 255578.349165533
 -1661323.51802500 -324081.927431142 -158035.036525326
 -45716.0401383467 1512025.54952379 -775686.006874781
 -1054115.49901156 789313.216310533 -1075093.09424865
 650246.642123958 235648.906602718 1552948.45285459
 1411013.53949793 164784.702656798 -933748.784804477
 1639294.79756046 -314473.509568725 -322209.525729367
 -103075.634055116 395427.303754880 1650155.34453859
 -893648.359905550 -1159545.74513254 864202.680962709
 1667023.70889395 291257.697657015 -161866.943941559
 1680108.38108612 9238.79865635133 259134.081902691
 82510.7406287198 -1602933.97146636 560173.777322706
 931587.216006651 1279639.06582370 -620216.994438907
 -1325437.33464070 -775568.692907974 729183.841374440
 -16885.2471279053 -709014.786606190 -1544996.09086988
 172301.538646689 1642830.39695474 -401771.659803832
 619106.106170955 -1537120.16760036 -379432.760391173
 -319807.334902624 -305364.308321363 -1641485.88411411
 -832773.755602012 1215880.54039885 -847421.019009985
 176047.534450553 -1289440.65874736 1093777.88109975
 636290.864131304 -271537.223147940 -1552868.78797539
 1033266.94244516 1016103.84522985 888758.910705896
 1516459.25626892 601.772464400299 768342.997590411
 759555.287605129 1428023.17672749 523283.452633662
 565284.815249759 1546800.74042977 -421735.162221474
 -580602.640581573 -684262.290456913 1443844.06762239
 985285.125830826 913435.483006166 -1041560.77076752
 -1460332.55310898 -766310.636333541 412549.200668587
 840541.543719755 1381175.51217142 -525208.642216812
 -1625252.54440054 73187.0178289040 -493150.917408535
 -446990.981692710 1067094.13368563 -1245595.91045375
 -1373991.34235847 -704968.498214903 -710751.157331878
 -318328.627140897 1379911.75192094 -940484.153004753
 -970510.783758983 799192.111656774 1144290.51698994
 -1697329.62621012 -38161.4597010845 87268.7973040908
 -10358.7529164965 774160.035613588 1513462.56494727
 -263970.525355326 1668035.80985782 -194874.571906162
 -1155804.69938591 358913.666594932 -1193857.81264305
 -222294.775059551 -852469.149289399 -1453919.31773776
 -535682.893356740 -1407837.46339971 788059.334322758
 -658834.587493345 1539982.36782639 290501.795358146
 -1352570.00461670 -835550.686553640 602004.512284528
 -452291.830739862 -1299434.49319780 998449.847380313
 -896378.838767060 -1378580.02076508 -431302.798226449
 1483959.00679240 771879.297842331 -303427.117644633
 26537.5195476951 -1147213.14199541 1254271.80742025
 -1056068.89958514 -1327182.43304090 115348.466642107
 -722326.360584950 -1314109.48871695 800850.098625316
 417243.196898078 -990173.506908922 -1317370.31272834
 -983044.371869303 1340379.51516631 -356379.738844139
 -247488.598019638 251859.061023826 -1662924.05335616
 632392.519381608 1395504.07353845 -736646.510999534
 792765.133469723 1227917.76958287 -868182.811565256
 -1057057.73092025 1325167.73791635 -128683.409526572
 -406269.041199717 1353617.70798073 944809.275358608
 844899.006545010 -802554.786306745 1237760.67303635
 833176.382599861 1344933.33674560 622070.281550376
 262245.477718746 593121.335204173 -1571443.41009840
 -1433522.40861207 -318899.059509081 -856339.239934304
 234808.214855202 1529849.56652050 703153.899266397
 600262.287692819 1418393.97343599 -719613.592210603
 829757.089205986 816679.324875995 -1238764.72876511
 -501629.609084116 -1081744.88961751 -1211691.26805326
 47178.2987546019 -640461.975508691 -1574033.88338820
 1410301.55826890 -252932.975629727 -914917.714651659
 1698877.94282547 -30572.3197385584 -53656.9533881346
 -388490.182000924 1592142.75769521 -451837.158285583
 -1373739.62585103 478694.763167659 -879596.932738250
 574761.390750119 1591443.39996608 -164186.626761697
 1678880.22565969 -163714.958458127 211089.081351718
 -1472203.09757243 829449.944395401 186093.603438148
 1479368.62852436 543366.074686699 637355.293237241
 39234.1095758874 765392.157805017 1517443.74835325
 1592757.72574072 -568223.331093162 173911.106875471
 569380.032313997 -1383353.82902065 807550.965906182
 1675662.79571710 182200.622365122 -221262.577629676
 -751177.526974844 107332.805166780 -1521253.42790180
 -1052810.97488923 95430.2189954284 1331345.98225078
 25621.8958033033 -1492705.58658539 -813125.789919496
 -676815.722082359 -1088066.83123431 -1117153.10012096
 -574057.344561978 528920.792589432 -1510198.98037345
 1223099.66351143 191034.236907228 1165132.23860963
 -1434331.56711487 -192363.025226887 -892014.249944120
 1195652.49632160 -710092.631925645 977846.389840878
 -487910.357971081 1528106.43678182 562880.271861180
 -1116304.52419641 242122.748188429 1259063.45513970
 1691052.79423604 141284.686135734 101877.792329860
 -494382.984342789 -911947.408175397 -1346824.92905147
 -761286.370586499 -1380018.56642472 637174.872607422
 1095817.66904871 348112.317130450 1252198.64672612
 813165.221994982 1124300.27916431 982197.130930905
 -980165.036294922 1065481.92583683 891080.673867425
 1397751.42847741 -675684.178470638 -692633.983539521
 1042507.49138042 -1342073.98434555 -44894.8878889548
 54904.1395185703 -1686909.27390459 -203279.701589703
 -542117.850518227 1600546.59303502 -185361.375894462
 -705960.318877753 -909071.584493171 -1251083.08374668
 1627928.86491488 241383.259312446 426124.081577945
 -366701.546073717 -596965.760947211 1548922.80516618
 1676898.44251936 278113.613029659 25776.5731572371
 1612707.76975403 -212454.398160662 -494000.787526887
 -987070.398996077 -695792.683807840 -1196480.07446226
 904069.380044429 1327447.66530367 -557262.282902680
 -1536931.90700536 322167.461266111 651190.018451007
 -700150.521403923 469706.459330971 -1476199.54255533
 -1244750.86380252 644532.477072116 -961859.227258423
 256482.819617705 -706887.379544897 -1524639.89055813
 490476.356452635 -1627276.60845853 37467.0965600265
 983206.583143576 269181.950239062 -1360457.97161420
 710958.417963034 -810312.053252405 -1314508.46489529
 -458180.636471097 464876.976463583 1569700.57689899
 804386.757376474 1495820.29885658 74051.1855810680
 76019.7017321258 1138621.07628401 -1260064.70055724
 1524053.09544245 666027.702761557 351666.406451395
 -171279.162029416 1656553.67874740 341311.233455568
 108041.266740249 868588.152548666 -1457354.35153337
 990663.550215285 -1020547.08308887 931165.603678337
 -311445.004772918 874172.891936139 1424367.84715396
 1662218.33006946 -55473.3450376636 -352069.497644180
 -1092891.52233654 -321556.504293872 1261819.92968538
 -1506525.30214756 764297.739276944 190343.057990945
 1098869.97366360 594907.204341819 -1152636.19551130
 -1296286.80244765 507393.471044261 975803.459381907
 531536.637872452 -132131.806097453 -1609350.79719018
 865898.425517529 206072.760997857 -1448362.50084742
 1481240.24687406 -213566.328717928 -806422.193567623
 -6678.50400158305 -219031.218673655 -1685817.52358630
 -1389592.31577156 147348.048549763 968153.783516452
 -324519.692616470 -1547715.81975344 623909.216464267
 237138.780464309 211555.845174171 1670032.73116803
 1199585.21362896 414563.987695992 -1130987.18619989
 -483785.642033977 -1514497.09153714 -601872.089639749
 -739105.556221645 1447750.58861996 497736.084599922
 613207.157390661 1495558.27180298 -526576.146218704
 169336.392719215 -1358742.41560994 -1007543.66363117
 -222978.024238492 930399.679345323 1405217.86118054
 244375.431953366 -429913.895055685 -1626485.37992066
 198609.309963385 -1296468.33559065 -1081537.88505381
 -999557.824729239 1318000.62890206 -392120.513664257
 825057.423142895 -435721.839938047 -1421065.34920735
 1445876.49155235 -81351.5714355956 -890406.139355091
 -741211.736483969 -1529495.14955274 35351.7919355271
 -1587967.01478381 -395984.222709407 459953.536048836
 -1180884.47604009 -803127.110831202 922224.863086796
 1166489.53461310 -375957.256137090 1178116.42344719
 821978.712144334 -147414.966871469 1480749.75074245
 637345.416326449 1572970.42589667 97748.9618467424
 -502934.770561369 717678.952106155 -1456706.40084548
 184005.363225312 -1532708.69890413 712001.454077115
 -64915.3572098843 -1556328.09329192 680902.975781896
 -934542.884065628 1313961.00480097 538642.809016071
 -997713.902393952 -1270668.54594888 529120.416640662
 -326199.118155522 -696409.660637279 1516115.99816295
 1136242.92171790 1146043.07602009 -534356.894549311
 650975.499337194 116615.824581944 1566088.00797393
 -58862.0303604369 -987131.137806871 -1382789.70857971
 1077778.30330182 629723.417109843 1154054.74171520
 1209329.46619294 1173507.28410834 -224505.893780446
 474291.707891412 -50224.8777203191 -1631724.49803373
 223409.134925227 1463537.17783603 -835552.085464286
 1324240.37675478 1024662.95489715 -294029.341110378
 -766363.800390746 1479981.92235844 335171.649968908
 1397647.35862058 -477441.424036189 -841802.558534488
 110883.407732889 -1600567.48408258 -562039.677235618
 -1626142.56316220 -492081.730100242 -59295.3216859244
 959952.351350804 -1260604.48890727 615928.409543592
 185023.124617265 -1615280.63566671 496623.510717148
 1126946.26702647 -341603.376323227 1226091.04250854
 1634770.81314366 -11056.7632247086 466264.020143733
 -823459.921793669 -703852.486616529 -1310154.73677093
 -667220.950746833 615185.676396042 1437484.88216107
 -888436.360339853 783512.333253897 -1219339.68083759
 1487122.22397572 -770681.186090654 290719.796992583
 784627.937706412 -255119.499542839 -1486362.35162345
 1174037.01948104 -1224418.98633168 -111513.330138512
 -220248.462775432 -72852.8727362108 -1684097.10930787
 -448537.566141489 316761.203699746 -1608874.26220651
 488987.369615661 -1200564.22053516 1099789.48200424
 1084727.70236597 1182826.88315813 -560612.500929357
 -1234850.65668736 501284.623039419 -1055394.51504308
 1407044.67557697 -885107.704872641 356103.400300510
 -796354.738639909 -935787.896874730 -1174785.14729653
 551510.514439819 -636072.616566403 -1476904.79683583
 -279766.906690544 1532016.58919799 -681656.547201717
 40617.8447020688 -1680404.21687114 254149.284109627
 571320.986845693 -904348.614929747 -1321266.78330469
 533617.023044044 -940001.530881030 -1312116.60863619
 -710953.519883320 1187434.12275039 987190.608086159
 -368613.627984159 -1515590.71168665 676098.208778505
 -949993.613517920 -1207736.68984027 727244.265903027
 -1426402.45174485 -305339.374503700 873008.540642051
 707880.133918176 -749705.146464198 1351609.37750856
 962844.460038024 -1157574.99921126 789272.238822034
 -179230.460860890 -950594.772506924 1397943.49684889
 1312128.45578680 -1013709.94536772 -375114.732018256
 959005.879139199 1224106.55252500 686928.578413949
 883194.656603578 -1110593.89061149 936241.640113987
 770446.105101562 881555.969946018 1232587.46991293
 897588.569560011 978321.083541526 1061707.40663016
 633056.263612581 1421028.29451130 685505.910477212
 -179445.782544960 -944733.514537384 -1401883.66052132
 -203223.085219858 -1310520.07109601 1063596.50285634
 -405237.759276206 143473.006612594 1644748.56887925
 -1580796.55642786 203471.893318844 591338.681142268
 -646384.610335818 1169508.95078034 1050921.38124871
 -246617.473685997 558251.911508164 1586674.07647891
 -1074435.32246169 -1170206.68958988 605148.776323427
 1659657.25964489 235889.753255284 -282654.921798960
 -114394.702111086 -1693401.23337006 96468.2069372274
 -1100399.99029609 922497.883202068 -910009.624588698
 836659.140081670 1340127.27543776 -627742.279080809
 -1567452.48621120 -470491.323278455 -460141.954390165
 -1598254.72540004 -289030.474219957 -502039.059943176
 224095.325715424 -67086.7636135354 1683829.16328835
 -1684908.26124331 105043.366567912 -200125.066731114
 1111762.22658046 209842.200111526 -1268838.44621812
 948572.202587057 -196367.372497032 -1397014.90024185
 -1480018.48675075 735378.604364782 -398451.486530716
 -1615244.22629390 -118379.733126898 -516693.650250357
 1558297.33323020 646236.191613471 -209971.916923593
 -612814.220407053 599061.813760800 1468190.61247527
 846265.347796442 718059.567174362 1287721.01757653
 1293239.22967418 -1091700.21603848 -160383.705946945
 77002.1908427377 1397343.47213789 965143.452280052
 -203088.242337197 -845040.686635477 1461048.04977627
 731527.898378476 -742406.452416275 -1343018.83579667
 -428021.201608692 1520353.01100791 628748.417805264
 294557.183725367 1602345.30542968 485515.795503355
 910937.278512470 -1021426.68118436 1008405.08208804
 -814600.005265077 -1490450.40813125 70600.3705621902
 372505.714833613 1039115.13987608 -1292856.99847145
 829096.507693882 -245818.413680329 1463616.16840806
 757462.520193164 1516156.72291334 132360.575955623
 1633450.53613744 -470604.832119572 19246.7653909319
 -579570.806194276 311198.931985068 -1567562.72772054
 39492.0312659576 1179174.76905011 1223922.89115863
 247066.003840140 1519931.08465923 -720255.432213509
 786831.302582411 -1506718.03640031 -26405.6823898227
 1348347.25097058 -681305.898804924 -779603.721805949
 -702696.664544225 -59851.9062792791 -1546814.51601450
 1297508.38192269 -968666.225980346 517839.493941264
 -1468570.11693907 -18989.7588677636 856119.851826667
 813775.734361101 -571551.062587671 1378803.26262305
 -1374629.56282782 632951.145267394 774445.874612613
 -878624.990556473 -850753.994099781 -1180777.61136164
 1378108.42110649 -943228.045897464 318022.063869521
 1528811.09161936 -609021.573918500 426414.550224843
 -1691075.13339719 120538.372808016 125440.798333143
 -1668418.86694764 227184.471132094 -234020.726623935
 -293518.805178151 -1380145.48309010 948179.917796604
 -1396381.92702610 460863.853114438 853066.247584207
 -231174.803507620 -175607.390440199 -1675028.43398135
 1600269.56104527 402787.887255079 408533.046242993
 1195920.56962812 -932244.462381128 -768566.362456799
 -509762.621479664 -740956.215082441 1442610.81275335
 -421127.674712757 805279.832131633 -1436724.00743952
 -1333592.00917158 -1016674.77041239 -279114.249511956
 -691032.508935448 -209778.529569951 1538982.46907684
 -1143708.58756109 135677.605441666 1250408.83478990
 -1411376.56633064 -447052.940254226 835559.606864036
 -1621439.36829287 -221000.435333524 460535.755976014
 1496571.37861028 -89165.0533355270 -801450.997870852
 -1277813.33420938 -1036095.88866726 428600.504436825
 1483711.93852329 473154.639238027 681706.367031287
 744741.721167422 1424564.10995419 -553151.756196258
 -1665278.20795477 -304745.363089198 154850.746806661
 -69357.4710518269 -1557414.69211862 -677974.201561071
 -729933.868679941 -1328733.75915602 -769196.427860300
 -535444.247170173 1320877.18731695 926597.493088577
 -1575416.44567579 -37348.9940567533 637705.320141842
 279243.400562387 47389.3588998656 1676239.05571533
 -1207201.55167131 -366478.518995656 -1139455.09290938
 1112789.70259491 125512.177053405 1279040.95759676
 -1095923.83170814 1252133.90725271 348010.967359119
 -987599.761660889 700131.345969908 1193508.61293822
 -696380.514701538 -806498.522763120 1324618.55321633
 523309.656901485 459793.880120410 -1550721.31306611
 1465440.15320646 476282.921613167 718080.591542374
 -474035.546592823 -754240.815742589 -1447898.85435219
 -227295.027804782 1683768.22740463 -57109.7777782687
 -910969.053101256 -900568.723098029 1117636.50587720
 -1272283.43858194 1030285.80328583 458045.866107104
 -1117369.64501606 1276505.05675018 -109635.379727167
 -464463.590700181 -493510.126839028 1559077.07558710
 237329.728274114 1103874.00261200 1270880.31947729
 -1661148.41841515 -278131.552748616 230713.613301166
 354569.888764428 351790.764290984 -1624968.75420457
 -1356183.66244627 -821597.374067143 612979.305229629
 414137.075312540 1192401.04164458 -1138714.29196989
 -150482.635269454 1693326.59153521 -175.733040923943
 -422072.347691831 -1577925.97882802 -471173.575928808
 310882.065784796 -1102516.97784474 -1256108.53620914
 300225.122404532 324674.468127759 -1641478.40851567
 -358174.267207657 1136849.02294811 1212140.87190070
 818080.332393335 707968.497192085 1311306.66769249
 -375142.324970588 1604918.10506693 -416540.648729540
 -1605742.06519388 -550658.500514907 -91474.7827412907
 -1228585.88170488 994815.271054209 625235.401870988
 280163.930692866 -1474893.12119423 797620.494340922
 236330.985899279 -306768.995587042 -1655306.75358086
 -1160344.14777237 -847033.054159345 -908920.493713234
 -124669.165320978 -1619826.17572459 -500620.374790730
 1198847.59933970 216452.563927730 1185711.90477558
 1612087.34779701 458626.600349982 284316.767926567
 -1199861.17889944 53848.2672946950 1203093.31121048
 -914744.283274099 -65074.8567693570 -1431435.69860256
 -348219.079510216 943907.784391309 1370321.70209427
 -461818.122577230 1463172.11797974 -732018.698412763
 -947537.124099195 601137.988484069 -1277030.35095300
 622381.141180906 -638912.086358737 1447215.62353613
 -1605455.80715138 75191.7157489556 553947.522033125
 1547915.98917082 -605011.548525504 357655.024597842
 1637805.63836200 -445777.009537158 94210.1306534923
 1246712.77739216 -228176.179345173 1132979.64759591
 586003.276863422 -1571586.26296370 -276977.936971772
 -644129.751112882 -671107.035805844 1422923.82446256
 -347571.715305812 1436352.31799491 -840289.189095053
 1001981.80588182 -454646.830813579 -1295889.16189348
 -927794.825549083 1420647.87907859 104672.658100606
 871092.703342287 1286780.14847209 -689488.471029038
 722119.999436719 848996.769657568 1283646.05383436
 623479.048123035 1279447.80688143 929670.471736026
 43057.7875265875 -544351.888667145 -1609915.23014034
 1273310.60639196 -89819.1644060261 1122770.06432980
 -748397.312165651 830366.461590851 1280778.28003457
 1597235.60837177 -551207.262579131 -187106.827853228
 376683.881322228 -1293160.35827402 1037229.74376010
 1450348.15537084 -827300.973674773 319473.515598974
 75829.3368036478 939882.795996217 -1414521.20573368
 803013.207165031 1049067.11697052 1069872.87712592
 1080242.03564071 680439.831561084 -1122532.30691145
 -1439099.88151324 -576736.339446867 -697399.975473182
 -368873.682434510 803808.860503411 1451834.53677870
 -1083576.72896359 -975991.768536795 873671.299858807
 1090311.70966814 -691879.332658985 -1105677.78525205
 571308.818162247 -719459.440080306 -1430379.09253784
 356813.658816572 1637118.48333939 287275.276329993
 813526.744743702 705888.460611511 -1315255.00066041
 -1235509.54723398 641546.261989051 -975671.334221505
 -627419.572974035 -208453.232358206 1566171.10475468
 -785677.991202843 -1477763.04309805 298205.436893853
 -1675834.13804076 -129614.086645076 -254519.410498177
 1422764.49869514 -392688.692375722 843526.390893030
 1388148.93117116 -185130.589841650 -963726.729728529
 501378.066998310 107474.136851601 1620823.66216718
 109140.266437702 -739543.908422245 -1526814.72672930
 -1229521.80504544 868338.476434879 -790104.057235858
 -1379637.26534778 -644189.037944957 -756056.545144115
 -1502406.45030915 -231669.288188771 760988.961141729
 -347264.725444400 1260210.48663736 -1086865.55738566
 -190573.267083923 735439.910623111 1520792.54592322
 -825516.584760670 625707.951269135 -1347965.84823343
 -612353.256105143 118600.017555121 1581441.59726920
 -56203.2082608303 1313299.09983717 1078001.24014217
 -1010094.03668759 569315.189206768 1243217.70112343
 -462428.847027330 1371589.27678693 -891573.001632555
 1571165.11613233 -299064.659876030 -576194.851644936
 825208.643635795 17984.7238171622 -1486172.01029288
 1482054.79116652 -831232.188725353 -50662.0608267582
 1212783.17110705 -1090932.23882630 -478564.342767997
 1638893.86545070 444727.180159918 -79022.9904209569
 1403128.71197599 215182.988391028 -935374.844185854
 -38139.7075528169 576028.536710037 -1598979.82714088
 1379536.05185345 992511.098970317 -42449.9712289793
 932700.041856962 -1419001.71493635 80652.1228965945
 -13890.1858247639 -1484250.23091170 -828738.990742148
 -845621.700053160 730810.054079528 1280953.00665383
 -207562.921084168 -1630040.37302634 435759.126232765
 1199543.88722260 196021.311914612 -1188557.99517826
 -182373.018679482 1595134.33608864 -558826.030074470
 -1124137.49553844 1273463.29123538 -67868.5273195762
 -504532.492522303 -951244.327303798 -1315515.56196100
 -206320.179985087 -1447815.34691266 866754.120021983
 1627623.30124141 -232650.991142121 432106.359102261
 -558381.037740147 58604.9678545963 -1604610.87944554
 -154681.641102288 -1307524.23580631 -1075385.49492032
 -1130867.75711875 1214538.82724683 368827.267184932
 -1619610.95854212 -283415.977351518 431897.819804811
 1603750.08459611 484530.932345736 -288470.868127318
 -250125.103529331 1318715.54443573 -1043276.92653868
 -888620.266691698 647457.829451920 -1296592.60398407
 1388363.64213805 -692465.406663396 694937.448813679
 459214.422279740 1612561.44054659 280655.865487589
 147100.885625587 1686455.02112444 -155662.426976874
 987298.238557147 -1381941.35903873 74028.8343832524
 93949.3071356017 -1694498.74466230 -99234.7319572666
 -1558711.62682733 -666122.652233077 -129223.359247779
 -762553.579857578 -237136.632664784 1500759.22629008
 902718.765584025 1150941.71535673 -866274.782106782
 139541.218818704 1523683.00004215 -740890.250734302
 -763399.660441298 1501455.48246420 -229896.482392215
 884520.775095492 -1063403.33908698 988330.074845002
 1247365.94648961 -552825.483039859 -1014131.24438597
 -1658420.05319126 -362880.232721482 89223.6732773585
 1189091.73433908 1181468.84327375 283182.308239552
 1489501.24545919 689758.780878678 -442288.213698128
 -463957.439685343 -802676.575124792 1424939.93203452
 -50202.7574343900 469208.071176258 1633194.25332354
 1183468.64491481 627924.898926939 -1046476.12863892
 -1152572.35294190 982758.319591990 -771856.888617761
 -1246147.98648010 501178.425758668 1042082.23348527
 469895.538657836 -386052.915646013 1587501.59970649
 1303422.39085239 766879.709272897 776521.463019631
 -794027.906512315 352628.747319722 -1461222.99812294
 -105636.253603708 -1608631.02805699 -539580.575537039
 1015490.07531588 -1049384.46470891 870386.208623814
 1203303.11846533 -1138376.81932063 -382308.543358730
 -1093635.89025884 1180418.62584561 548244.842469613
 -287660.184896353 -1176044.02931517 1193386.80197895
 73362.0351349767 1333370.09172155 1052018.16063380
 -1324758.03544156 -338785.080440667 -1010069.70888342
 -426052.813738458 -1222157.06068028 1102184.70273130
 -1477135.95130283 -238520.467534013 -806955.617079422
 1668532.56626287 250174.722673168 208354.705863965
 1321674.05708274 -706634.399428117 802399.845699952
 1208455.55547034 -497568.204390080 1087226.31150690
 -1549566.69377353 698474.647340163 -31244.6566760535
 -235854.106011891 625169.368766226 1563181.40375126
 382151.905147679 622744.880137919 -1534975.15799247
 -1142660.74415367 1105768.22624894 601334.394150599
 -197128.520929104 1479749.28958890 -813315.674383231
 -672952.404300241 -1560280.01782656 51588.0559594452
 -665949.762014678 1497783.46528764 450727.862000490
 -674445.354897406 -446588.868100235 1495219.66484736
 -177639.462754436 1258215.37434075 -1129308.76780661
 581909.594612870 1484061.25376929 -590714.329230470
 354031.463996627 -1540564.95891854 -625556.815847061
 1277416.37338113 1097171.13038927 -233287.204231428
 -906901.167840365 -1408172.87202065 -290825.436086500
 -59487.4047738695 175184.529395191 1689902.84612277
 470906.901113235 318073.669799388 1602209.67138021
 1252931.13118883 824237.353040316 -800497.574231785
 1124042.12798091 1103863.98176843 -638759.425980151
 -520790.687000457 1467148.20847380 682827.353513107
 774223.998917435 1183502.32241730 -943344.821543613
 723220.274380166 428075.014074112 -1477736.17978681
 -357686.003357808 1652346.31800995 -178360.220791730
 712446.082712232 1189063.47262457 -984148.686580432
 400168.400315237 1215458.32694419 -1119163.21725259
 1007013.93081142 1299771.52163784 -431876.064040354
 -1379800.68491941 306433.860601983 944588.989440637
 -1214236.35671017 -1127041.09948266 381324.573192088
 -1143691.52336771 -672730.134959817 1062734.14591505
 1195064.96478094 -1176268.73434109 -279663.359353242
 175762.797543688 1659332.34790425 325151.654152603
 237882.809273695 1682378.06678242 -54916.3860929761
 112349.468764645 -210522.709009158 -1683168.97127405
 -1050316.26769848 -1122190.44683803 -726308.707667336
 -1011497.07995019 1002451.33315993 -928420.692303944
 -850952.607733601 -37414.2311612726 -1471217.12697276
 -574845.365102691 -432211.654087577 -1540371.99802218
 -1355860.04287348 920705.066829616 -451603.503145614