# OOMMF OVF 2.0
#
# Segment count: 1
#
# Begin: Segment
# Begin: Header
#
# Title: Oxs_TimeDriver::Magnetization
# Desc: Oxs vector field output
# Desc:  MIF source file: /home/martin/PhD/repos/ubermag/oommfc/docs/ipynb/thetaevolve/drive-0/thetaevolve.mif
# Desc:  Iteration: 1478, State id: 2965
# Desc:  Stage: 28, Stage iteration: 50
# Desc:  Stage simulation time: 1e-11 s
# Desc:  Total simulation time: 2.9e-10 s
# meshunit: m
# meshtype: rectangular
# xbase: 5.0000000000000003e-10
# ybase: 5.0000000000000003e-10
# zbase: 5.0000000000000003e-10
# xnodes: 100
# ynodes: 100
# znodes: 1
# xstepsize: 1.0000000000000001e-09
# ystepsize: 1.0000000000000001e-09
# zstepsize: 1.0000000000000001e-09
# xmin: 0
# ymin: 0
# zmin: 0
# xmax: 1.0000000000000001e-07
# ymax: 1.0000000000000001e-07
# zmax: 1.0000000000000001e-09
# valuedim: 3
# valuelabels: Magnetization_x Magnetization_y Magnetization_z
# valueunits: A/m A/m A/m
#
# End: Header
#
# Begin: Data Text
 543184.739454595 -1605899.45185207 126638.419781896
 -33217.1815104991 -1655906.47591598 383236.691708962
 907422.996551138 1412159.87501438 269050.167681672
 1085447.49327482 -202474.837973333 -1292597.26107210
 302875.131810425 -1101480.53141963 -1258970.72779090
 60009.4067351298 -1218421.64112796 -1183996.44236558
 1505873.87994796 353605.750128116 -705199.851933338
 -371647.962553770 1655468.80341575 -106305.375437241
 1150849.90337445 -1109622.86619314 -578170.904425614
 -1591013.11732881 -560611.509911916 -210694.080225199
 974749.771688733 -1256804.24555577 -600254.921633932
 983033.926850117 -1163737.44144044 -754559.120315504
 -1092779.43194981 -1032543.05127253 793528.802486883
 280800.075969917 1564832.43260117 602038.848592665
 -923611.895026059 707166.120831162 1239700.42547181
 -361641.179195864 -181982.875087675 -1651089.90993363
 151617.578814714 421458.486120318 -1639934.40547832
 1222868.99870825 -1153803.43550723 -251652.626074122
 -1059494.53896846 870119.197527980 1005168.59480849
 1115932.27030056 -1220809.01786539 392836.492704495
 523591.291403290 1548684.79073684 -466291.302199619
 -633612.138102173 1433850.11972134 -657730.562331340
 1448262.42595804 874963.260884777 164241.400566437
 1037148.21494608 461140.239265447 1265572.30530870
 -781771.342764126 -454008.534268685 1439690.87600220
 1629876.52659511 -474808.023193331 89776.6626996973
 133366.714623083 1101273.52300350 -1288180.86733273
 353235.111952826 -1114251.41907599 -1234369.77068090
 538133.685890019 -427436.302585228 -1554898.82093424
 -998155.026250879 -1375776.52586529 -30421.9402430118
 1554850.07077184 408915.384885925 -552475.760033330
 -613741.179253474 -1564297.11863128 257480.658556013
 -944310.700724489 1206409.89810531 736785.218534391
 -927021.770859973 -1025795.85952275 989127.641377807
 -939387.682029390 -1184002.08071576 778260.789011116
 683965.396794786 -1323366.17747252 819080.762995403
 763785.398296574 -893652.630814693 -1228013.37158311
 -763002.904907344 1447487.72119456 -461092.034298926
 1334885.30923721 227189.940044276 -1027845.29104596
 1130715.58411595 1245962.57388251 243021.670476968
 -391881.864535423 -1560300.96842767 549444.712570727
 1608723.22003006 148630.916136235 529073.201083376
 255472.094461006 152059.132629454 -1673801.66959401
 516562.233665822 -1600714.45136700 246732.048860724
 295101.475896342 -1545201.01073598 -644413.652357168
 -1212748.05643985 400938.480587896 -1121824.62372032
 1459071.11292789 -778461.723379958 393838.587052726
 788309.494429842 -723292.659475031 1321141.88100344
 -401178.927142110 391908.873154365 -1604824.88252145
 1099303.68410953 1123293.19280957 -647876.387199671
 -1057826.94233665 -825440.564299362 1043863.03453846
 -497049.005537826 -445868.417643745 1563375.71947428
 550444.942429496 1454305.72726346 -687026.358302571
 -10095.2013573729 -686737.028660708 1555085.31610835
 -1340284.32050981 -1008114.90902605 -278104.783121299
 -34336.2149985443 1257479.69034643 -1143488.45761810
 1636318.63410181 455783.540453338 68721.8447294540
 -1206263.68297390 -975916.550219299 694632.862846481
 -265994.810951110 37788.3621384845 -1678635.99396473
 -1219179.53817166 -858759.846739974 -816169.577557669
 -1400947.46885798 350502.033528368 896936.181672310
 -512150.956141680 -214944.149440977 1606704.82999967
 165312.985616624 30787.7492971368 1691663.00759925
 -62159.0703271026 -516454.181199868 -1618459.55423583
 -1072873.52983031 -1254441.83151100 406593.261558496
 1576751.52243669 622031.303095058 130121.844682037
 227031.024218056 160954.947298006 -1677066.01509386
 -342047.824099382 -922733.097876735 -1386205.94289293
 182960.276600079 -68778.9329592961 -1688725.84973625
 -287029.645486846 -1582671.08572603 550241.962247964
 -1395800.50280527 587570.274256999 -772335.502989538
 277327.961396406 -1676776.36400560 38861.6384094592
 -165406.089766639 1238691.83084193 -1152511.76726036
 811531.528420679 -1420975.86169489 -460699.662317717
 1197775.04319578 196910.704577173 -1190193.73226390
 90122.3586110618 -1694924.81343517 -95434.9898104377
 381711.975148465 1656355.52541277 -27970.3675851015
 1270302.65716326 1089673.66311455 298232.236886773
 271405.558103996 725081.153037507 1513471.61999823
 1334641.88348588 -906444.260371883 535807.657358610
 375573.045929142 -1141810.76561584 -1202170.14714860
 -1532009.73292333 735081.597450838 -51002.1893384237
 1606087.33008951 -430904.852767895 -353276.797974360
 -833056.721082976 1334134.35311272 -645059.708323958
 150232.128249470 -1607454.59872944 -532465.980758585
 -1008787.47592675 -530507.345186131 -1261312.72296640
 1664653.85524005 -312773.751379363 -145258.812753324
 569014.823394871 1326910.29095985 897513.905464281
 925285.535875503 1137984.81196844 -859556.423295613
 -610990.659787468 -449360.119536256 1521435.47238220
 -1383608.98421065 936091.353682370 -315212.874693717
 -1245781.48241150 111617.013790567 -1151334.06981340
 -412432.615665766 1590918.19633894 -434601.691313736
 -719393.800056749 1495296.58358891 -369541.185184054
 897554.219360771 -89607.2538992789 1440960.43087807
 1199093.98692262 -137448.265392130 -1197197.38759601
 1628433.64671653 464145.786786942 150905.754858601
 432341.733277866 962902.464258937 1332628.78176571
 9867.87277575185 -1353249.13604157 1028892.31744125
 1579004.14068333 -235476.075909349 -584206.249007353
 1499647.98548452 -269253.316959029 754028.229537047
 -409499.532685181 -1624766.23498174 287132.050446993
 1317950.47389286 446414.615883162 -976586.165728074
 -689635.694971936 -1141625.78012663 1054084.05090431
 -141342.531414815 397373.746233498 -1646850.44694945
 503970.880671636 1612152.47617110 192295.982824495
 220042.997251658 -1662648.94698056 277812.092006349
 -296181.400525702 -420421.560915704 -1620346.34850079
 -1428495.05179801 711809.385280974 -585430.855024326
 -427073.722882323 -1455997.01895731 766603.362900822
 1189464.38730763 -474949.136744985 -1117854.09997551
 838858.077680760 1477943.40537129 -44726.0106565665
 1612449.26223437 -50935.7974417602 -536109.057243765
 1351983.72097612 1025389.26666211 -103522.316578206
 -837331.973331807 1298107.65015074 -709782.850635591
 -1056417.46873813 -509848.433150188 1230461.98923787
 1089296.61094451 350990.594510752 -1257075.37401294
 -1622564.50780679 -431265.913626453 -267009.606099957
 1316102.74439834 797566.058661797 -722330.913264719
 -1613409.69950555 -183276.779648353 -503307.821897424
 -158028.464782176 1540600.15623795 -701126.353033587
 -1527792.98753083 -696926.739583594 -264842.796588848
 1195780.26857740 1145729.84425855 -383943.580824361
 -1573579.56860681 -26622.6741810579 642758.566246037
 -1374402.23934856 -999855.467284065 36159.7706828377
 -988424.628550095 902888.953950400 1047763.47068886
 -969160.314942537 1122416.12562554 831210.156865422
 -1301387.02262857 -270773.597616900 -1059751.61059918
 440550.534352291 289534.987173208 -1616194.51734144
 490003.906990566 -1492689.22779676 649442.099307937
 -642916.132341618 1546552.61341523 291262.528852280
 -997296.062708535 -1275968.54559943 517015.313068124
 -884825.649622410 -1371558.20028955 475301.665249320
 125111.948081593 -1614084.23322730 -518728.337855454
 853008.669381408 1461784.26429849 159884.253788400
 677129.947979583 -1217358.96105661 974439.425251436
 -1000798.13269130 -1373378.64198895 47267.3600931271
 -145455.873402417 -1596289.98138610 566304.586083413
 114713.638171114 -880940.843668104 -1449408.15893070
 -823891.847159408 1242198.78367978 -817401.006855719
 -351678.616772578 1321394.74723754 -1010068.35039911
 1076857.42694336 1311410.65466432 102859.986728698
 89032.5511486993 825511.178885289 -1483443.45978247
 -493344.991610703 1491068.45086973 -650634.762423273
 -760168.677040690 1089077.27009621 1061157.04879438
 689876.500226694 -740179.383944231 1366091.10019021
 677132.895357538 203966.132975668 1545926.53726614
 -111764.824484433 447384.974028661 -1636262.60393047
 -1553270.85854215 -504513.719505567 -472033.417073826
 -223370.453680856 1508949.28560853 750451.659924821
 877798.094434989 1011773.08711043 -1046797.84371451
 827891.867406216 1266594.35573337 -774812.102323538
 323900.807979751 -1397863.24201039 -911628.555512748
 408578.281830084 -158723.779679031 -1642519.57351539
 1662438.77938939 348920.307107758 -67467.9484654921
 1228338.10301896 -1111660.86357617 381307.787836615
 -424118.660937027 1280291.05939408 1034880.74901439
 -675813.568252051 415521.283970646 -1503535.19530931
 648743.964833110 619493.585097134 -1444077.20227006
 1388649.01864592 290709.618418390 936558.498318583
 -892912.378202338 1168419.82770559 -852937.624376766
 1536884.54821541 719780.455120261 -99508.7025519944
 468029.196835831 149430.896665387 1627457.85752842
 1276767.63425021 -1103049.12752122 207718.632784400
 960739.472672357 -1307669.98244775 -506930.846027683
 1554363.82163976 685622.331926623 62250.5256277429
 -1326496.82081957 142407.381198161 -1053625.32341239
 -1673158.19557432 208779.326344577 216686.052789684
 219029.310125958 -1680113.78594826 -138722.123586554
 -1323274.94300947 -221994.300663008 -1043868.74446763
 -796689.890718930 -891298.508578677 -1208665.45687038
 1084970.90410214 -143441.610483561 1300869.95569644
 -831930.154416060 -436906.649993530 -1416687.96753721
 1216941.38158269 -1061512.40468480 531267.435941556
 -240571.420557202 1681032.28327199 79093.9581034233
 -1381459.43962868 -497614.620484174 856708.530447315
 1636930.90534426 -125296.229434670 441314.022005065
 -311449.946017319 171673.752229132 -1662385.95215473
 -1089245.86170528 -1142930.21072178 630280.878797226
 768583.849706142 556197.906830070 1410646.21872698
 1394671.38627297 928157.750603681 288816.402418120
 -1554570.83781412 356183.409034389 -588593.993637832
 1031445.66125166 -640037.534469404 -1190156.20922443
 863414.842077603 -1436744.03403131 -283339.709810587
 153366.217016000 -1685496.50513109 159938.534034469
 -445857.983766350 1604195.85336004 -343170.981253165
 524728.898650751 -553291.321302272 -1519384.18337574
 1335457.47219553 750243.247389615 737352.296872670
 -1380830.78320595 -607896.137837809 783433.873248231
 1569867.08886756 483060.891209585 438371.416351802
 1030819.85765246 -952058.159333379 -959685.199592086
 -444381.525027660 -1473010.08685938 -723025.825420235
 349145.821578647 1390761.60444325 -913169.948520325
 -1232557.03044086 -20957.0786242984 1170625.45998553
 -857402.052928805 866158.090347579 -1185171.66780130
 -1417471.94078756 261828.569577880 901231.988576056
 1282007.20866641 -741929.661230379 -834264.882824360
 225417.322462115 -1657511.37621545 303056.213350541
 175666.045959282 744351.412489091 -1518249.78676848
 1127504.09817683 -267513.913879274 -1243853.21259201
 -254246.048475390 457536.296550494 1617411.35280222
 39724.5102731562 1238383.97013156 1163970.40589731
 1637973.68271124 453716.200634625 -34406.7439184683
 815771.897275709 1471455.86754865 -243585.388461273
 -660617.591153932 1548971.05419287 232965.816227648
 251402.734093562 1009954.98528805 -1344167.99284245
 876033.717756394 -779596.887059154 1230769.52312023
 -972095.964293644 1354421.26061878 332524.412619367
 1689020.21223953 14440.2114521792 -192359.566800140
 -1117345.65493419 -802853.844240927 998481.042477644
 -1352040.25808987 989490.962944618 287914.526822132
 1064406.78717134 1310476.51731172 -199222.210102538
 -918068.724580130 877282.866915957 1130276.33274502
 461291.004888215 258922.603482861 -1615601.96032775
 1167461.82554555 278391.183591380 -1203964.79798724
 1136454.55439699 -173336.588257175 -1252367.94631677
 -316913.964830670 -87612.7550014048 -1667899.74040899
 -1057096.35968813 945272.571745726 937553.759226279
 -625182.844843356 -1579025.57854065 -76319.2821502697
 353099.303701166 171585.813072196 1654049.33133148
 707650.935444634 -347998.313592350 -1506030.32084391
 -715912.669931863 -1417735.69453664 606213.287109199
 -621894.566396483 1288695.48685836 917884.028860638
 666334.455501213 1553875.37452745 -177397.051410347
 607090.885121994 -1427133.86458700 -696225.243546062
 -88363.8829994862 11774.3219748979 1697661.09383566
 879505.543621497 -1332930.85428514 -582893.932404301
 -233469.371213722 -1610412.36181783 -492000.078871321
 -1451907.29061344 874327.261124120 132352.030278123
 -251355.765375883 -1076533.16573841 -1291470.72064276
 504237.421318743 -397277.263872725 -1574139.57403771
 10275.2348263961 -1699414.52063350 -43413.2077744659
 -1263352.07769695 1135927.93116358 60077.1419196370
 -1503196.43754054 -698061.702734232 -378299.258975242
 1112856.02063791 -99454.2911333392 1281272.93006023
 -196072.324912406 -1441452.97765358 879641.379550255
 67246.1488689573 1665076.94657845 336149.843723414
 -409430.736801274 718948.995679138 -1485085.45658973
 959476.100953817 -1256796.34675217 624394.550335661
 -283388.909624539 -1659157.85817002 -238507.709675118
 -418608.989882117 963322.827227988 1336703.27452705
 -1377708.72686435 -379960.167579460 920624.209422503
 -1647166.70964448 -364663.282249375 209433.811067098
 789549.640539889 1497213.10756698 -158000.872317109
 532154.334089399 -597462.917259421 1499949.94156796
 933002.217000526 -333077.070445591 -1381508.78687596
 58254.2624419304 1137182.92996613 1262307.97537724
 1013187.10029324 1286422.33478818 -456694.073048357
 147771.689003208 680460.032288071 -1550850.62865115
 638673.491487490 886665.497281837 -1302275.11194875
 383610.596185797 1546684.70528485 -592122.734685882
 -211048.283938313 1503454.27625322 -764907.746765971
 1245445.94237250 -1091739.41341912 -383365.958080732
 318478.894299166 -1459317.78405104 -811765.236406654
 -1630446.01435917 -479292.945982872 -43864.1789089889
 939408.455614076 -754797.954350108 1199079.56434495
 -615464.062815028 -1535258.36605528 392664.916742618
 249887.877560375 937398.548432958 1396008.59955953
 1123535.35559245 -1255480.63195270 226796.577411143
 -988914.936779300 -1235643.47413729 -620670.969706759
 -308003.771735312 728497.389514319 1504800.72769375
 -729322.243799475 -273628.567234512 -1511031.59195713
 1398843.49930882 -966009.613656468 7892.44985629634
 701918.270580681 -1002362.48120040 -1180076.35249030
 1006319.24356998 -1316303.58189085 380350.444093390
 -725719.704146698 1296966.80298176 -825353.271621610
 -619418.596784271 -515379.687200616 -1496898.25304822
 112870.491260440 -1250543.21549655 1146037.48559032
 990458.347932607 1145162.22530368 -773043.167454538
 -1455580.13092040 163506.116850609 -862874.401186043
 1391796.65061014 -322487.681130274 921359.744545858
 -457230.617064363 -574382.362659421 -1533305.27432887
 1195141.39326065 -418306.758441183 -1134308.82300960
 514193.024175405 1178027.37018284 -1112590.24307669
 -29129.5751756744 -1696694.05931593 101885.901537485
 1333433.23189910 -1002504.11255963 -327018.837940765
 -30844.4996261428 -588400.572022841 -1594626.40881368
 -1388424.75353381 959293.742092896 -205017.609380237
 -1150574.44062263 -1251432.91726589 9701.03959937916
 -1156411.61428210 -344681.376484824 1197458.52832488
 -1583184.30633810 -2652.73431899241 619290.251146745
 841675.210308595 -1080050.88298427 1007508.27813814
 1147254.48026617 -648566.259862223 1073857.05011306
 25139.5538078445 -875242.405483882 1457161.19028649
 168431.460382444 -518695.778657244 -1610150.77938577
 1199003.96826359 1054551.19937489 583362.024805474
 727528.789711675 -1535451.04169062 -55605.3838386267
 957223.539636454 221758.692724731 1387280.13658629
 1553484.85493861 -23544.0182312824 690022.089995606
 681650.693235327 1491946.06967757 446597.422278092
 771733.427226257 -1093521.88584638 -1048159.05399734
 283791.369452899 -1317098.08942421 1036684.65863982
 -444352.116127000 -305276.841638913 1612252.22805007
 -1688829.18546605 -192482.467403420 -28398.6277901127
 169250.622646182 1240625.85878665 1149870.29931370
 -167509.792078023 113937.450636673 1687885.87496323
 -1303327.35324094 -457424.726881904 -991009.802943936
 1305578.70925396 -1073500.03140291 -181829.360997378
 -1258654.68282638 -1058205.07724339 431266.047696242
 -861134.817279477 464267.083700718 -1390288.78347668
 1355067.15710518 826454.089713788 -608906.098943219
 -1256356.63345517 -1143660.15284041 -60078.8180497074
 -975561.157631606 -1367259.55579570 -262453.300237998
 -646532.036798454 -357034.590915782 1531183.40713412
 -1049222.10513204 374704.178905434 -1284028.71946584
 506054.111963419 172160.692791794 -1613775.05607887
 1393700.16036912 -367111.249967738 -901570.403869943
 -489017.680568816 1625951.23165290 -84523.9633330233
 -766345.049250105 136077.693515059 -1511356.38643487
 1514892.45262700 582281.025570020 506013.502028228
 -952717.615797477 1173193.59330889 778425.293247949
 1187534.71708660 547420.371809626 1086320.50162089
 480409.823805439 -1630607.92778607 -18005.1945960876
 -101952.020660055 1532204.25870768 729353.066135585
 -105843.880352669 -604250.354999078 1585458.47674273
 -978918.844389425 -341881.460356307 -1347158.10622358
 133655.262282696 1087420.10653934 1299866.83270176
 608140.050535490 1121944.74851232 1123123.17232809
 -224871.460652666 -640895.810516595 1558424.00720927
 -68918.6087341009 -1664791.76685605 337221.883006504
 904740.309438565 1092750.13335349 -936665.425076068
 845600.022712024 -149974.362450403 1467129.26908198
 1058392.79062009 1267531.67916039 -403940.766806550
 1060855.23136724 -1301243.64577906 -267116.364905602
 795480.175320879 -102852.521192094 -1498877.12957263
 -429460.399334496 1565959.65480839 503323.082041582
 249812.819322944 1031504.59977097 -1328002.94275022
 -236157.187951617 -1682218.20192806 -66118.8602495219
 1415631.41699277 -520197.948222681 -784462.737093323
 159051.976078102 187030.511813394 -1682177.77198383
 299582.071776144 -1239904.06007155 1123783.12146446
 -1208531.07290172 -792702.143528319 895028.467411299
 1343013.11168229 80597.4722079017 1039143.79626842
 -1119120.34139375 523740.684246999 1167589.54994605
 -1369343.19697204 -226031.520448757 -981737.724990752
 1426348.36908030 -924030.548009717 -41205.2953736799
 996473.604111174 -758015.814523372 1149979.29600587
 -1686284.03285464 -124148.403068236 -176162.806957395
 -1598596.82358265 -426505.806132423 -390616.170897724
 -72614.6679945983 -1527465.54301817 742681.711693672
 -1254933.76609161 495610.621397724 1034171.82067627
 364743.181419548 629568.413403859 -1536426.38107138
 1449573.56454116 -854005.610389007 -243743.509467511
 750510.739387703 79194.5035324257 -1523306.22682177
 -671382.914932381 41876.1157813674 1561246.73657432
 -409083.328703738 -214505.268584966 -1636043.49573169
 -1051520.19523862 -1328187.81264115 142205.532089501
 -284402.143234855 -866657.530157258 1434580.12893848
 -671156.079003872 1014770.93396292 1187345.55593566
 -1069874.02839165 -1220485.24366200 -505752.245053186
 -1576962.10829806 -461277.676333676 436363.855410082
 1399992.98558897 -435434.419851707 -860474.582024421
 -1363488.70646089 -1015025.55752473 -24933.2092843032
 1409042.59762620 933309.867608831 183116.490515748
 -234275.523960611 718543.075716380 -1522764.20604538
 -1310162.41256497 -1082987.99652855 24727.5570371798
 430815.485295586 -1567340.11624720 -497838.304705195
 -642148.628436210 -1011114.62353953 -1206354.98799566
 -105277.936232770 1117210.07621744 1277011.43367661
 -1092468.19525310 -865623.628206644 973246.616562732
 -228792.709366117 -383216.925215028 1640365.41184263
 -673981.993818167 -408737.584155218 -1506214.41345774
 1522164.18995311 517554.010539656 552407.480940203
 -894368.608011270 1418704.80589351 278175.244654611
 256912.879430271 122795.998405035 1675982.37316463
 -839415.156635001 256209.946188387 1455932.22997692
 1099035.89368475 -461410.663430507 -1212113.98146593
 82001.4771562657 -423055.933200719 1644475.42855704
 -826972.885605806 -660934.978672838 -1330143.15035621
 -221657.670779377 1624020.01854885 451028.664651422
 -754751.532823650 -1455287.67488691 -449986.563157851
 -1306898.98262715 -253462.588333178 1057247.25846113
 -257923.439413476 1671568.46400405 -171272.792784690
 -232090.747181726 -913076.612716322 1415070.66409530
 -818661.709284447 -167267.553571746 1480477.81856858
 -1643611.74393859 178559.112278428 395799.290814798
 -361324.083133529 253333.800433418 -1641726.80203062
 -1237415.85741535 -1128073.19940870 293688.359648180
 920206.491228313 -433498.875693984 -1362093.51304282
 276667.288253016 1565531.03008860 602136.035660104
 106833.290489601 -1644283.82776396 -418231.206149261
 1005408.54913024 -1368669.10590650 -76801.8741498866
 514072.982009519 1512615.15702157 -581140.564679875
 -670484.371656492 1287489.43350264 884772.098330099
 1531171.26932183 188095.399947175 714237.120655371
 -891132.412491914 1445513.30397238 -79839.2850993966
 -1336801.18784625 -833107.208670315 639448.952641571
 -994934.373972516 738596.627153369 1163864.51696303
 271978.930351496 -1442471.44405388 857498.451621902
 -121835.231803197 835646.335158731 -1475415.66306829
 -892328.605572102 -826161.121325763 -1187942.53282198
 -622529.430782511 -1382703.54573332 -768497.242952840
 882748.344002896 989531.081445023 1063759.18328087
 1476147.25160389 478565.308047292 -694236.658147549
 -187430.525877214 668286.735833338 1551857.80169403
 -170721.219995723 -1003943.09426868 -1361231.98923380
 159050.643256612 1377025.91117276 984125.262778317
 -263000.325721891 1651111.68764621 307670.316391208
 -1122037.04986751 -697381.031800637 -1069903.05879051
 906099.310394518 -1057500.17040390 975026.886448930
 -1402667.06720331 672588.037629741 685675.163777015
 1485154.14277721 -586365.507433441 583517.492354784
 1200095.00035609 -1198774.41048288 -112747.074869999
 1285600.37179128 174746.848462198 1098496.80154411
 -355996.344960360 -1125109.65446638 -1223680.86844626
 -559834.591310675 -1255450.73338659 1000214.32023896
 -849220.270666368 905580.104918741 -1161356.79507406
 1124062.64829314 -882473.756106436 -920718.867242116
 -1222797.14654184 1159748.40821598 223048.801946179
 926656.131323465 969639.569863261 -1044560.92155318
 1142655.79840108 776695.688013122 990495.600496145
 169110.460418121 1039534.54704310 1334454.78667547
 321399.141759024 -954993.925529524 -1369192.89871014
 1031912.12716917 -246761.218035998 1328256.85131852
 896637.240015547 331346.932951157 1405791.90132863
 1236598.32275082 -383024.829715039 -1101869.57848541
 1007330.56296241 396319.189294855 1310807.47522987
 1298783.51622551 -1091168.65745094 111858.566849506
 339395.589241385 1648491.87452146 -239343.213064858
 615023.710417839 798354.969977953 1369078.22184687
 936733.879436370 1209370.15166806 -741588.481147368
 -1543496.03613052 -671261.035430142 -238806.634670452
 166167.811652038 787016.048813164 1497662.84499593
 -1565047.71950062 -584908.168787113 313859.952482011
 1644918.18974772 -265038.857683229 -337636.717427239
 1065176.66479175 -788711.629395399 -1064580.96847519
 -246147.160644309 1239062.10427622 1137601.28210781
 580604.987999346 1161214.67094138 -1097487.28279683
 -1143789.99124787 1257667.57477126 4089.90100014072
 -247366.572322445 -933342.076031858 1399172.02230676
 -414815.183823163 -1153426.07690392 1177937.45521050
 -1232391.81122725 -560799.200386893 -1027966.28372016
 -791754.903649917 -654084.412019017 1354731.61714786
 1319923.35426166 65247.7263648201 -1069366.66914528
 1101062.13209145 684610.513266544 1099532.00335377
 -1175016.45086938 -1077092.71286009 -590937.922365821
 -1501086.89663373 480351.247188709 -637181.926986925
 -1345911.51954805 -1037948.88076558 -34413.6958977608
 -1302148.03453436 457887.839754998 992345.314073088
 -745990.819347316 1430972.79589076 -534616.268804175
 487855.722452801 -516848.748089681 1544300.54253315
 -913755.428994022 807378.951111317 -1184563.31417377
 -266891.606168932 665442.951805725 1541413.16604233
 595526.607464699 276782.177269932 1568036.88928140
 -1541122.36368050 24518.6088598707 717175.500127687
 -215822.523183321 1269400.81762472 -1109973.96487507
 1644246.45428090 -136859.961161785 -409539.923103325
 21676.2582071164 -1210377.68116801 -1193530.89979292
 1315662.70121880 -870075.521624580 634034.891225521
 1447429.61556211 -869715.930933490 196320.420420858
 1591352.72666945 124333.830396272 -584925.292614966
 1618517.46403508 509919.340171977 -101899.387299574
 -261127.781485412 382184.038247221 -1635771.26843748
 1440630.86095669 710941.002369252 -556008.645264961
 1098315.89286194 -205490.548932180 -1281200.93419667
 502325.704952578 -1268252.54175771 1014497.10520485
 -1158223.59800811 -694383.961859192 1032641.76292162
 -31970.7969519183 -1667606.05336423 328736.853615825
 644476.299233260 658197.761179705 -1428784.80076764
 -466969.293564577 1530458.80466420 -574138.943195476
 -1529747.75415306 482226.248987004 -563320.205080203
 667570.030990877 -1418361.68737794 -657723.633071863
 181257.296551271 -1604691.36033034 531141.629443680
 1198368.35624576 -998401.810329938 676096.966328609
 -822189.609369494 -540426.601887315 -1386341.70903763
 114630.552080700 -818580.452817444 -1485525.45545166
 -947103.917167934 1326439.37689451 483272.955490842
 -1491821.09316479 -773976.125109495 255794.416962310
 1648028.33767095 -158930.041980023 -385673.229547685
 -123806.888617101 875055.424511014 -1452222.38598804
 -1329606.10893560 949196.940664415 470290.083793449
 974654.848961808 -355565.277271565 1346707.56253688
 683347.632672324 1463961.26668828 529011.741417494
 437925.629465739 1625825.85848246 234331.860716376
 390868.035882400 -1441743.77568626 811539.933580203
 -336320.048709280 -1629071.32382206 350735.579513719
 -992546.051936781 -288515.836898150 1349670.68081205
 -583597.790628252 728607.337676828 1420755.06905916
 753279.562265111 1469623.52562277 -403455.814197512
 803604.208258122 1434894.62078906 -430462.197760103
 -1431409.01089472 683857.081131636 611070.974695669
 1315605.83215483 -862434.459619709 644506.087838312
 1547177.37945426 -698477.353528298 -91496.1371488527
 -1067431.21216108 -715787.077028826 -1112762.08942561
 1486456.03041914 642164.840745039 -517757.459571062
 1641650.81199050 357029.019918263 -259832.427589680
 -1008903.63383024 405717.220913548 1306716.11082833
 193130.821143442 354851.386572158 1651296.75690721
 1119753.14312393 1017682.05999900 -774903.944512014
 -943201.052422841 959366.545078673 -1039224.52188748
 -938924.451428673 752938.583680590 1200626.65459102
 1377466.37968335 155206.233058263 984122.653972521
 1029241.59744025 -563798.554086940 1229956.47260711
 -488338.113604008 53782.7887447057 -1627462.22642386
 -1179293.33137072 -925822.897654752 -801323.405849797
 616581.659904525 -1278759.98516696 935200.490272104
 1114428.05723383 -1178495.21939746 -509116.021263680
 -1008988.23888453 1368168.96369798 -7511.36247961282
 -676818.543977693 -1398016.73754443 690989.044828882
 209595.024874613 1276971.99833979 1102457.45541672
 -1534798.44593198 283477.762641879 -673820.516497032
 144890.282038639 -309277.063863672 1665339.15582942
 -1372602.89175853 -987575.635425379 175087.594792636
 1677567.73531118 104151.375714704 -254792.041437064
 1283497.03449392 -1111758.24592732 81418.4564943241
 218385.625996251 -1674264.88192486 197850.507988592
 -503223.059060907 1553946.65250871 -471186.113957494
 -797283.250382309 1304840.24461280 742786.210627685
 266878.289266569 780436.171343640 -1486504.41007641
 -1028241.94464019 1308353.51743472 347749.301507182
 -334304.933867722 1305912.58105730 -1035776.29912446
 -1423441.51718188 -773423.612977707 515393.211103390
 -693065.312654833 1173250.79468389 1016436.44423460
 -820472.950802181 501378.313230009 1401942.91040134
 299840.403831706 1301433.02893482 -1051840.19861744
 172170.546847483 1691180.99864567 16252.1573356895
 981857.263024607 -1387665.97275968 -18424.5241666287
 1565402.36002350 642309.644814810 -164176.037870085
 -336473.162088757 -1536389.83198344 -645207.017454000
 406771.617988877 79888.8422139143 1648682.69345209
 690823.957946993 1417840.43370802 634421.597732233
 301578.115207786 390985.330361028 -1626708.67455430
 857705.291598708 753280.039400623 -1259726.48420368
 -1213973.24632899 1037565.90121423 582860.152896868
 1176989.89884057 848061.466471114 -886276.777939112
 81642.8731643192 50460.2602509163 -1697288.48561371
 -1006392.32498068 1268992.76961009 -516557.682062045
 1096069.88062045 1188116.33803798 -526317.759612836
 -171163.558378336 1258460.50856202 1130035.47938686
 967130.399248673 854487.553271775 -1106575.71460462
 -1487630.03023286 -292942.616752945 768857.279629536
 -1506869.42782899 -553067.863576717 559875.401989600
 -1241337.89636432 -623263.811124269 980113.487710816
 1322165.48025828 -947095.441380030 -494862.271476166
 987516.691319206 1127372.87975828 802397.142536967
 852280.737576224 1208426.94371034 838642.871591600
 136574.524907127 -3158.77444177607 -1694502.11604778
 -521794.688681785 -1041741.39490719 -1237943.92805179
 -529210.835188895 1059747.14461187 -1219373.56105734
 -1141725.60923131 -217854.233194569 -1240565.26080034
 -1198600.18481441 367631.422973973 -1148130.97415103
 -1100037.00894550 737104.967729225 -1066112.02295965