# OOMMF OVF 2.0
#
# Segment count: 1
#
# Begin: Segment
# Begin: Header
#
# Title: Oxs_TimeDriver::Magnetization
# Desc: Oxs vector field output
# Desc:  MIF source file: /home/martin/PhD/repos/ubermag/oommfc/docs/ipynb/thetaevolve/drive-0/thetaevolve.mif
# Desc:  Iteration: 407, State id: 823
# Desc:  Stage: 7, Stage iteration: 50
# Desc:  Stage simulation time: 1e-11 s
# Desc:  Total simulation time: 8e-11 s
# meshunit: m
# meshtype: rectangular
# xbase: 5.0000000000000003e-10
# ybase: 5.0000000000000003e-10
# zbase: 5.0000000000000003e-10
# xnodes: 100
# ynodes: 100
# znodes: 1
# xstepsize: 1.0000000000000001e-09
# ystepsize: 1.0000000000000001e-09
# zstepsize: 1.0000000000000001e-09
# xmin: 0
# ymin: 0
# zmin: 0
# xmax: 1.0000000000000001e-07
# ymax: 1.0000000000000001e-07
# zmax: 1.0000000000000001e-09
# valuedim: 3
# valuelabels: Magnetization_x Magnetization_y Magnetization_z
# valueunits: A/m A/m A/m
#
# End: Header
#
# Begin: Data Text
 -1217080.25023116 849751.431957466 828636.330595927
 1060840.73696533 -984142.897289578 892232.978828587
 -255624.903583757 -1678793.68948572 -79420.7580594066
 261825.692142771 -1454596.53655782 839997.751644575
 659688.964848278 735273.508377165 -1383540.14670198
 -1682416.25292717 142412.283988913 -197975.486501614
 897758.380678446 -534911.326139980 1340857.84596607
 -1642826.16870399 104127.910443757 424593.402784357
 1615619.67302727 -248336.939949836 -467013.743249182
 1564654.96591192 470149.794464117 -469908.510683220
 812051.542808501 -940008.774772845 1160584.24733941
 1177526.31165026 420152.416967398 1151913.07479679
 764416.673878348 -342500.093018162 -1479310.93248827
 -578858.538232674 -398282.918662780 -1547996.61156496
 548270.378377049 -379975.669982242 -1563655.35921949
 -913970.475319424 112580.592128812 -1428979.90906811
 1566831.94540992 566113.889411621 -338456.376891021
 1324929.36243473 254703.939986809 -1034257.26369869
 650613.452341146 -41461.5631814540 -1570026.45659597
 -1609151.69321572 548270.626592099 5490.74105085287
 -429716.097355784 334651.521373509 -1610388.90797090
 -519001.877803366 1589076.83990612 -308985.190115247
 410684.293589666 -1542108.15101958 585867.614361583
 -489492.864393271 1396612.52025433 -836582.454977938
 77589.4174926734 324822.330074149 1666874.42123825
 856966.879020812 -1139357.38674860 -925998.117450964
 708559.171405945 1115037.65923426 -1069876.12325255
 1663938.52870351 -259299.933466650 -232534.120507482
 -267570.621574509 -1427156.41944021 -884098.703155263
 -12466.4775742630 600623.927755663 -1590313.01458054
 1192951.04931319 217311.449065268 -1191487.94708453
 104638.536248222 468764.882031752 1630739.17660231
 301408.702854211 422954.098429660 1618722.52855926
 1069571.93432867 1071935.79276957 -772638.035224720
 -627890.462781381 608592.044347439 1457864.63373840
 1612905.51160432 -534989.315588026 -48189.6549381496
 -1208096.01637055 435600.878254805 -1113892.22552868
 -222644.704905425 -415364.331547967 1633371.30116067
 -217832.507061646 744915.422025462 -1512497.93814599
 1224844.69541361 170666.024096998 -1166459.84943163
 1602250.28134590 202941.355050980 -530668.297844400
 -943347.296130693 -823720.991551446 -1149599.75946432
 1386510.28628267 974656.434004213 -132793.304373890
 878343.678429595 22939.1920393339 -1455330.26355922
 1390916.80202269 -627300.461086657 749562.926892351
 959212.986542183 -1119631.25965125 -846366.521585414
 680153.237430406 1453112.87453751 562009.383788439
 -1160543.47495492 736046.627193188 1000686.86677556
 -1171976.91537171 1027498.11104874 678761.918221017
 701411.451930115 899378.806649682 -1260610.85877073
 890254.474149722 -1429842.07360955 -230214.282337885
 -978872.286806284 -1310783.03216585 462230.341614139
 406599.161459159 -197911.981421569 1638751.95484567
 -535979.629910457 1331361.05695225 911155.075907514
 -410485.630366685 1617628.08126545 323698.838372853
 828292.868576808 1305458.96977074 -706900.135881960
 450361.235605409 1141679.65278182 1176325.77455735
 252055.742815687 -1258448.33844606 -1114798.49388847
 -512980.254492135 -1285562.51655201 987005.711502044
 519435.677854266 -311961.626634524 1588353.39898891
 1618178.19763483 257312.182422761 453089.131933351
 632261.632830565 1564000.73820831 210111.681099097
 905202.202907956 645630.000815529 1285990.23087173
 1597480.58074290 -7127.12446321673 -581381.972756487
 1409068.32557416 56666.0556724584 949376.327911199
 970388.320833465 -1213548.27657723 -689671.724232948
 1292916.60784618 -382154.894209934 -1035530.91792902
 789304.190785788 -1132659.57256679 -992008.662805327
 1049643.94104023 669606.531403026 1157529.56339782
 247169.044870476 67536.1130211502 1680579.16704207
 595072.377209403 -220787.906554305 -1577067.39431190
 1103654.82573269 -941523.626750800 -886272.692745838
 1648816.70556618 -163296.557609511 -380444.090135156
 861892.701288656 1088731.45083795 980716.472494284
 -387916.827763208 -625046.133710255 1532591.87831333
 -329290.931400369 -165807.345414849 -1659540.72161666
 1008900.22065419 -337068.069043363 1326086.52115739
 58463.8228914469 1697573.69503153 -69466.0445823803
 807846.722122576 -516939.547818885 -1403622.87579557
 -743815.574679714 695273.660685883 -1361371.70810192
 1687182.31144960 151107.908010271 -143465.145831174
 -1404456.01970219 -581516.193401640 -761145.324845363
 866570.515914122 -1352691.92494020 -556129.568670744
 871706.726239355 -1247570.86090620 -757426.122104878
 1511573.83948058 -696359.165057045 -346739.730978431
 1156626.57140677 -321059.979979950 -1203800.42514160
 481797.053564822 -1544958.54354330 -520552.300839057
 1450774.64460199 -873731.127459552 147806.791076117
 1219561.86107693 -1182463.44429551 66701.3486473511
 1175590.22079019 118414.512764075 1222278.86995943
 778467.664834583 1456812.38476535 402101.691617048
 142509.318055128 1066549.54056928 -1316116.70142846
 379248.148279348 -1261993.02132383 1074031.86924626
 978458.597158436 99778.7526109685 -1386601.23113105
 -404128.265470195 1596397.04850495 -422133.638286175
 -693777.216621671 -45416.8205291214 1551325.39659148
 -775955.759352949 -1307631.60642016 -760258.009769067
 1145814.67756583 1086400.07119344 629955.244430580
 -1507625.11119466 -629085.240207826 -470444.773217799
 822305.135645010 -1358878.55993202 -606022.543515441
 -1614471.80328980 519366.493542916 117214.511759867
 914574.357064928 -533860.007836688 -1329867.37588073
 -1683317.97815557 -175566.892226721 -160052.650000190
 1043011.46719384 -1196563.82618301 608573.815713792
 570917.319214809 1437511.18118706 -705418.328782832
 -1186628.73132589 1209277.11162859 139861.078514081
 -619149.068910529 -672396.210184405 1433365.88734240
 1574605.26382624 -164030.979098456 -619444.994351147
 -1099831.20252793 -1139813.09849230 -617411.877478347
 1624951.30175484 -498528.816666991 31658.8988733138
 1369907.78522190 941752.936471608 -355603.805710136
 1666570.02440346 -328036.884511229 -70257.7836259135
 1682872.79688603 -240651.555241019 -5096.90701042058
 -1196265.49615644 -913077.031972226 -790720.681650851
 1272376.74971799 -1123093.19937980 98585.3553218914
 -730443.564076058 -481882.328485316 1457477.82871419
 -1209307.27760746 370556.963031422 1135897.63864292
 -382497.419406224 1615428.85267778 366176.659665445
 1260349.73794241 805894.254370500 -807497.980704047
 -1252191.14996704 -773399.180642244 850806.106775298
 951375.522999945 1213726.85786005 715368.246951008
 -43405.9218525852 -442917.576480908 1640713.24319407
 892261.156796053 -1074949.89455326 968686.095839571
 1067342.83889253 1230652.69866246 486079.416905953
 -1071711.82755201 -1319201.22058544 33791.9856034402
 1596139.83202194 135368.597593581 -569221.379973129
 364900.557407923 296550.881957034 -1633678.41315661
 -1409399.76481963 -588746.152647405 -746304.408850208
 -309297.359000852 1090530.41422253 -1266916.95046311
 479005.726353087 230509.933816387 1614750.34743236
 -1434240.69931436 -515609.461029806 753060.754605379
 1174660.35205275 -699476.940040267 -1010398.46974707
 923273.579417977 1376730.92943961 -377064.776229596
 -61299.4515385306 -1661628.98297272 -353880.629854365
 1500977.18220029 287400.403212854 744626.420930093
 851322.085934727 -731040.339910900 1277039.83000637
 996908.162105496 -685104.109384712 -1194490.04836023
 -436587.491374775 330407.811718286 -1609416.67703880
 65037.4100602924 -270238.139432941 -1677122.97798595
 1092374.87389234 822200.528717373 1010298.68131437
 -1019605.33263106 -1354883.82371635 121222.068543958
 53831.1025595504 1673983.77272398 -291342.652308276
 1598963.75331552 572696.067608833 -73035.1266756065
 -1342906.90535643 611935.484484305 -843881.512047151
 1034277.98608973 849704.224305122 -1047984.62712399
 -727193.613699461 -1517875.21013127 -239257.799587976
 -482244.851995711 -1096190.01849091 -1206568.41749009
 1689178.94564096 188540.988976016 -33567.6195053448
 1386921.71082165 -208770.012677982 -960657.717325993
 1058672.08644128 -1162663.37325751 646086.135028095
 -99376.2188339408 1135439.49653178 -1261309.44531702
 1362465.51767700 -165875.870195681 -1003081.70595818
 695468.507398128 -1122634.46600073 1070521.09318998
 513806.828897456 1055160.86063548 1229893.53228697
 1503328.46969128 -761919.867094809 222444.663550097
 825789.161050232 -613068.311921752 -1353595.03043169
 1435792.36556241 -79331.1038005180 906756.229072886
 -1001139.10466774 -1365211.04610748 154658.632772877
 -223567.215220148 -1679650.14271628 137087.921976676
 1426989.16184991 918935.544232029 -96225.7632335826
 1054432.89668832 -1083775.22806045 -776918.606691853
 1291246.27941761 301426.104090598 1063872.80708877
 -1037712.09328317 -1313934.92402093 294497.244285848
 -75275.2615538084 651154.782116030 -1568544.25654026
 813189.253377628 -1434556.37766802 -413244.767036629
 1291336.92854800 1096440.55887503 -142362.346925107
 147961.228395339 865526.587457693 1455668.64405866
 -270799.309802085 -134486.372628761 -1672896.03663464
 -140726.690687106 718436.700190244 1534289.64226055
 393991.266247305 -1594829.63621497 437366.337949398
 1159801.39942559 -1001024.94334614 736756.253240706
 819029.148434103 605887.216392025 1360915.84421228
 -81415.9695313147 1645843.00262516 417818.442167257
 1601592.26184859 404449.793585430 -401649.836618180
 1169969.74493387 -661874.205662523 1040717.70034817
 1332744.73856886 895604.783342996 558286.247251513
 1419583.49811914 914408.456917200 196570.256616158
 1589569.55454281 593619.297570733 -104330.057136919
 1046982.90935059 -493788.954737506 1244989.66088359
 1571790.07801318 -645069.534181072 -57976.2600617843
 1570429.76978191 290351.106549484 -582620.436569328
 -1364934.18578587 -426756.421718007 -919148.315015320
 711569.814388622 -1231153.16223080 -931627.763852089
 -456715.130594971 -1547791.22253524 -534559.277282228
 -1068956.39946990 -1064922.27466371 783117.337924151
 79094.5275748878 1657208.49702961 -370680.526977822
 -562727.869554203 835490.689266297 1369413.25135122
 40691.4995043983 1699511.45458389 2240.00139052419
 7853.07179673527 609002.817951621 1587152.76422603
 1333031.40816170 -1051126.89079266 90330.0852816506
 1258444.20264992 -338504.687337677 -1091665.13430961
 -1596061.46043945 -523732.183022679 261328.174841909
 -1020413.18637112 -1281705.31416609 453859.468027646
 1525122.24629794 -711061.878765547 241646.722331437
 -1670399.85978895 184712.578436247 -256213.918014780
 1344329.25605098 -820065.948944001 640523.762797290
 1691196.45697799 172386.573451940 11722.3375910849
 -582261.283795006 149293.794795759 -1590183.37314565
 805723.019772029 745997.428027157 1297805.16749869
 683277.967676478 664902.873366181 1407492.58892447
 112795.562826677 -462259.820628348 1632051.78203366
 849354.492480840 -813990.862292653 -1227198.36302314
 498595.450571120 -160011.930309855 -1617343.11722290
 627071.947329758 -1578436.47840870 72931.8620412785
 697790.747040291 -1401465.09256481 662558.425851836
 -981462.183910336 915517.371395734 1043340.75173291
 599903.400004375 897033.802608067 -1313562.43385752
 472682.914608331 -34636.0052953275 -1632596.46250216
 529337.828173181 -1615378.97027298 18768.2195399678
 -137554.098732557 -992467.740591279 1373348.70073391
 1348262.66187069 -155027.005883987 1023794.13069816
 -1131631.98071053 -765144.783154523 1011910.33251202
 16864.6389769832 -1632712.56429634 473249.687100836
 898359.851240570 561611.880602361 1329489.25277540
 435916.146970012 384266.933935316 -1597596.95677438
 -658246.846258952 1562395.50529268 125025.495125455
 1190562.60261011 1173192.25654554 -310130.002495446
 40349.2660786513 -1595912.15049870 584325.546778090
 298374.497823704 968603.401718399 -1364837.02661820
 1414906.52351503 547704.080132837 -766850.552793989
 -1120303.09883498 1244810.66334999 -292176.965469385
 1540348.78824499 685489.376501966 217784.125351527
 -395181.630666082 -995631.744130505 -1320056.40366756
 990395.879445835 241393.537081029 1360457.70321323
 -839758.366897495 -1419833.54770786 410948.393388974
 -1389884.70910824 -451341.768516325 868625.985899377
 1607950.45790919 -351083.858649686 425717.569645980
 1250459.75390117 -1056942.46710585 -457409.034783568
 -1331820.30363288 761913.158032116 -731944.682642586
 1574431.73190528 -595067.615205722 -238870.791230549
 1418883.99124680 231644.877458406 907253.476229679
 263370.675136998 1627179.67678200 -415839.135899331
 893580.822391137 1181953.78509214 -833365.804290729
 542555.620523994 -1562805.61345472 391499.697563392
 1526679.85863893 -741666.741092831 -95807.3816725978
 1653016.48891553 -202686.076583123 -341254.804702761
 1385777.67252436 -436266.477131393 -882775.058134479
 -478679.841447518 920139.633267150 1346925.63442930
 664284.649152387 -1564692.88178653 -21496.2924027773
 1639057.12837338 441225.228165768 93872.4025391211
 1537955.88167560 -441197.078761028 -574488.332094011
 1620306.26653116 490069.139574680 -156332.469680455
 1559193.46705977 560047.101617923 381133.803601158
 1348010.22814798 128447.067829873 1027798.50922948
 1420993.86196188 -621321.763942752 -696229.638781431
 1215558.32391590 -244961.230318102 -1162932.48161697
 1266053.23383080 169874.439590653 1121718.27295464
 -802533.868632151 -1493172.99266200 127960.164438517
 676258.744791380 857094.956794681 1303097.21246356
 1647381.03041875 378529.722257321 181248.420639379
 -1038849.77284677 437577.208815335 1272524.00204538
 985516.867181606 -1084559.03266938 -861677.555211815
 1372751.94667299 -493433.267647593 872969.474428588
 511817.964579543 440640.244333737 -1560089.27507600
 1139890.75722649 1165588.99467273 -481717.092376269
 1283051.99459781 -957616.622617445 -571618.739410582
 889053.536518910 944811.922625058 1098596.48646296
 -990512.432540283 -344017.064592421 1338109.62938481
 248438.880140703 -1561664.64979407 -624084.645234927
 1242658.87236848 -412731.607584942 -1084182.43253810
 417563.369043165 -907769.210532842 1375353.00677386
 708202.389865144 -1372598.47935866 710227.280137553
 1533220.89259411 714970.717833372 -167483.035420724
 1547584.97230351 -438467.814741394 -550206.078607134
 513201.535728694 -1617469.08743090 -102068.285628587
 -481790.586755383 -1585704.93198412 378705.293328633
 -14756.9413394136 1539941.77507166 719973.306499248
 1044303.11494345 -685185.685108950 -1153235.26699507
 1560936.25095367 513959.066155199 435113.891729012
 1397346.63747917 331887.928983912 909545.368478354
 461307.679574804 1529123.96162208 582215.711535268
 -366118.852844851 1446036.61945651 815435.516017268
 1387540.48847231 -288044.601831927 939021.671850818
 1151900.63353997 -1238120.06306898 -173734.394626616
 -642674.102310846 -1165990.61274932 -1057088.40179022
 998426.876960625 1202007.80653504 -669567.774307784
 15955.9051936735 1694120.40450255 -140361.904153449
 904038.151906240 1325165.54019816 562717.789810554
 -683391.459294404 -1552121.90268413 -117871.593573948
 -962762.719710986 -283461.084276887 1372128.91494760
 572950.952030302 -423519.142910143 1543489.14546110
 117821.991679120 -782128.464683790 -1504790.03286443
 889607.268077994 395867.571154163 -1393516.33456207
 1533972.33423910 -354161.941771604 -641481.252095186
 -292254.232459620 385515.117745759 -1629713.33601923
 866905.421626292 1443553.74467178 -233725.429080830
 -284201.877021800 -1644320.53080523 324714.159022483
 1021850.77805217 1345507.13212074 -188232.687932761
 503067.245322791 -1623210.02635499 45962.5611118434
 1665810.20174143 2594.02095315764 -339219.166365140
 -885589.526262151 126877.318049689 1445556.41091564
 -711245.309562794 1485801.19995622 420148.668727621
 492415.163578890 -1583057.78251007 -376105.522309734
 575025.571796544 1454533.73606723 -666090.986594452
 -13126.6875464336 983581.133782289 1386504.90202581
 1389849.63062837 -405552.892402431 -890979.716775973
 1695205.56239206 -124909.260074373 25995.7300858456
 1056366.41720964 390052.266309514 1273557.70271256
 1368207.76595081 395416.623231411 -928252.769058174
 -1632132.55617715 416128.699630903 230174.334820654
 866464.772508545 -823624.343131637 -1208669.40864849
 263793.145468065 -1562536.32991871 615543.169963104
 81181.8764917371 99850.0179298744 -1695122.26014783
 399756.395345510 1017517.41516549 -1301865.25194250
 8492.71737285129 717938.316729212 1540938.82004564
 1696083.18519499 60766.5002055715 98026.8399550828
 -153979.394654290 -1689947.66143659 -101819.681922933
 -432027.269336563 -1580350.09220973 -453702.572840730
 1536880.95106561 712860.755252480 -140806.554792454
 1137774.53593563 1050487.81687424 701387.519118534
 1136364.22200925 -1264245.53113278 18962.9098008976
 994121.903679392 19943.5899480818 1378885.01835535
 654997.339558586 -1330563.25107619 831011.383831015
 1580905.65276345 -405972.083749764 475314.616098055
 1238961.32555158 691805.950664239 -936151.355504559
 1042777.02926200 1243199.42703084 -507021.944173726
 -131584.743483642 -1397020.50405767 -959697.434884975
 51109.9070412391 1079797.68609704 1312030.76736093
 1373860.63693336 925172.458938252 -382835.305983148
 -1326236.55096910 -742176.535957697 -761754.947701313
 891751.541260201 -289347.536976643 -1418117.48155983
 -173745.385177279 -944270.352008340 1402913.41266938
 -1197454.64655719 -1136906.43980888 -404408.353721429
 1685512.96911145 -184439.077668400 -122589.793971360
 1022991.83540059 -1324819.58622103 -297221.749992981
 1135637.56977898 1201408.61230744 396162.411619286
 924157.487848658 1388150.34354596 330108.408506173
 1618591.76172356 50878.7250418793 -517273.684057801
 -1675384.20491014 -3359.32977728488 288229.909692024
 536770.275379816 1369717.56534638 -851910.478072828
 -887270.577854012 1440533.18700215 166177.792800446
 1371297.19857848 -228051.653458046 -978537.907556919
 864092.279113481 -823253.859148217 -1210618.69165069
 1699087.44145534 51627.8308179387 20890.9878605443
 -584342.705329645 880906.561401637 1331370.43410449
 1578367.74312687 -571472.235295169 268653.590601986
 912474.727054807 1013681.15607517 1014810.51743878
 1599349.69374605 -573936.747520637 51741.3467146142
 -340480.619421136 -1096324.17962451 -1253852.55950181
 1402479.46133883 -507880.735469533 815541.856106519
 667178.223884878 1252793.15248453 -935618.797727841
 1423692.29325228 -449401.429034001 -813104.304327720
 -1113152.11620776 361606.115354196 1232936.89356780
 -71855.2431497732 1352435.08578170 -1027499.95755646
 -87911.9597636716 1142029.86628480 -1256200.33109533
 -226115.700156156 -1052728.17932519 -1315536.03926215
 649230.667064512 -624257.099418283 -1441805.33178680
 653525.366646155 -522858.998902933 1479703.70764428
 1476360.47090939 816651.796990036 208421.693710464
 614630.006975521 1498383.39831744 -516795.071737300
 419937.332702226 -1626408.36587723 261626.573588171
 39788.6884151109 683118.338694551 -1556202.49184141
 1215606.33223666 470763.181079614 -1091184.34389701
 -122030.363604825 1117561.10883941 -1275212.04447264
 -830473.385581976 -157395.022954773 -1474971.44466904
 1574437.96653025 638317.220000154 -60796.5146975564
 132087.972819009 -499397.261908958 -1619615.73906726
 823550.033125142 -1135646.61554317 -960245.857863976
 253847.765196836 -1398360.89870538 -932817.296728817
 1341063.44153630 411688.290065571 -960240.385319069
 198603.641300973 776750.395072100 -1499071.51844645
 219324.379605355 -1572406.37171553 -607811.663839314
 286537.162483541 974926.080064588 -1362870.35073986
 -386746.208318908 563601.812527306 1556528.30596391
 -208179.780348216 -887516.319640026 -1434913.22435428
 -456521.745357768 79983.1800835742 -1635600.98646315
 1557738.96975118 667603.053178066 133249.636043995
 906186.248893822 -1422004.77685663 -216168.676992452
 535679.321646175 -866822.799937880 1360759.30930806
 -931447.151667287 1234351.38918296 -706245.602940644
 630871.608760452 848533.480730757 -1331161.87796186
 1107925.66338413 -992360.217655835 -823238.679138010
 469483.539690871 -900151.014607141 -1363566.41087300
 362400.879659639 1283766.51349127 1053854.42128427
 1039705.03509785 -149015.726446064 1336715.28504163
 -808590.991046368 1400284.51655409 -524770.313468207
 426341.723671517 -838826.556475303 -1415839.94251066
 1021820.45770366 -72466.6366555944 1356698.76494015
 279820.778580205 -859437.556368896 -1439815.06401948
 -1176542.80430137 -1073960.40023617 593595.896524921
 521917.797531510 -1608364.69558322 -175399.026854053
 -92947.5951096005 1106848.87730341 1286952.33298500
 1523503.26327638 -286328.598050713 697820.708151115
 1369758.09424870 -950360.237874289 -332532.978075417
 70282.1677080992 -588718.380409111 -1593258.00969922
 -1610635.50860121 282224.792722084 -464975.724964095
 633666.983351206 -840253.119351753 -1335080.84011053
 -609154.869970605 1572893.78718511 -211979.901466126
 -1571199.52872115 -128000.185726754 -636355.241512442
 1441602.48498644 -134735.318614372 -890858.388970320
 -646087.286271891 1107184.78900751 1116563.05756022
 114289.415735975 -1156724.58281302 -1240534.63029727
 -1030199.69580902 1229244.73794796 563600.888024735
 -598394.309748180 -907210.037650809 -1307246.80058764
 810066.372016210 -654108.109694531 1343850.83017437
 1618202.26695325 73486.0636926641 -515772.451445716
 1449922.07701585 -468715.506658989 753678.807184771
 1548031.46397551 -688992.530006392 137433.184265036
 275258.709179561 -1115766.21824169 1252716.40415995
 -556689.675982356 525597.793232231 -1517841.74550711
 905466.631256935 959002.307636877 1072587.87687880
 1380638.18748233 969311.459233471 -210412.666596334
 469860.574763315 1569557.47529865 -453564.077079764
 -60194.5126703925 1546814.30254036 -702667.868982881
 112045.810423371 1177110.48813797 1221415.83217271
 1404487.31921467 910414.572672935 -297591.458261084
 881984.623161336 159542.740523832 1444523.87950255
 1489060.89630905 -101628.281939923 -813860.761674399
 387433.964540523 -1295417.48169139 1030431.20646104
 -1170674.82044872 144030.882558793 1224244.89773766
 157281.059988931 886596.828274114 1441946.16136076
 -1228233.51106666 -1147154.18037514 -255890.071594607
 -158092.436017213 -750281.801783882 -1517262.00756035
 -298607.898557413 1633666.77723823 363271.501589646
 974246.467456867 -1329754.77281827 -415446.825496169
 1668056.94728976 -92657.7038863029 -314643.561047895
 1343870.16213194 -1039649.77528905 56047.5875743838
 612028.493023415 -1052766.35583353 1186214.19809092
 1276182.14691798 -134142.958794642 -1115062.68635160
 1421290.14664906 -471571.640522899 -804707.715194059
 132816.740415321 1412822.74378165 936104.485684549
 749274.545121580 -1183083.15467922 963795.572280302
 1351120.65064113 -943166.912809971 -418221.426987667
 -187767.599904632 -988016.368260369 -1370608.25346838
 -944266.624758728 717486.062820869 1218020.64474481
 -1117030.24313422 26374.9112924559 -1281229.01933176
 958771.531496869 148439.873886350 1395966.60211903
 1685467.59531984 208512.591825977 75640.4929702363
 877686.036519946 -971658.303060913 1084226.61994193
 146927.648813731 -1259396.67515822 -1132401.11295180
 1510104.43066531 -136493.052747676 768735.490943811
 1208295.12793240 -1195608.94254328 23283.9070038511
 1679321.30198405 -188143.645712808 185693.115867234
 -1350072.30221732 -1022342.86317215 148727.431587442
 1569003.67074571 -489026.675575580 -434833.751866128
 1378067.35901429 -781137.042896127 -617053.704498145
 -1271489.34353133 1119932.10394485 -138083.061379435
 -240993.888995266 112510.715750078 -1679066.19414136
 521771.708682900 -596491.177161900 1503978.90928900
 633591.420169672 -1356241.79182520 805710.937243719
 1229379.86814386 715782.741598881 -930741.750772880
 -152872.442509035 -1692367.45025450 50223.7955594576
 61029.4860006561 696524.719191732 -1549557.58763377
 338951.262665051 800026.425855007 1461187.79062495
 222623.359880584 -759716.376419671 1504416.78634454
 898156.069008733 1337065.67328155 -543664.474685382
 -357363.199895858 -1504665.14550292 705885.502945670
 92558.4133518221 -385840.162676119 -1653045.76735911
 1213071.77434609 -1183658.52362126 -131944.570724157
 -590486.489948865 -1593514.04555368 45151.8749445029
 -586021.626182534 1024109.66030091 -1223837.43092158
 1370950.28736491 557146.926660042 -836709.395003638
 1193674.07015771 -1209324.61731937 51731.8487828997
 -420480.214338205 -481508.896451782 1575228.73640239
 1144890.95743063 -455359.228992581 -1171269.68208216
 106032.616926952 610509.160547635 -1583046.31929550
 -1561648.49092851 159367.153126530 652576.509909036
 741273.391661556 -1482437.27622732 -378012.540620396
 980094.221842313 -1054112.50626428 -904578.432447149
 363859.556516473 -1293854.01495556 -1040936.12249505
 -177933.363941678 -1362604.08403869 -1000824.57411751
 1654726.64468082 175396.743073923 348016.829912590
 337919.241045107 -1338851.13144069 -991608.912006893
 227820.433539200 499314.294188273 -1608969.57263998
 1461071.54475024 485597.625565130 -720739.125597225
 1328556.16697782 -421897.502913773 973108.939543939
 1287994.11852595 -1095672.07863774 -174853.786736825
 953756.775377641 528028.419866198 -1304428.61101513
 1111798.10529783 -1260223.81466926 -256399.902489484
 667933.830170905 1562841.91070060 37276.8114370412
 504313.894984267 -1476517.77580367 674953.889581775
 1438965.03477493 -793695.034881669 435233.064345265
 1556628.40397816 -351118.205856231 -586194.521848088
 1342506.57359039 -118839.629090079 1036124.14431106
 -1571091.65747117 -104015.148736203 -640977.263760493
 1489663.97744656 -589389.298981166 568789.494052585
 1183454.47947028 834208.758930735 -890803.705394725
 -310160.402409422 -905654.768891891 1404845.17451590
 -469573.959599029 -117244.039439353 -1629648.46874485
 -12881.4292930621 -1217831.24860797 -1186052.74701141
 310724.253199727 -1670851.01206665 41319.8977408138
 1443450.69599664 897989.579452814 8050.05720341927
 -286412.208595753 1402647.92583811 -916813.417718862
 1241081.67887352 1066781.06205155 460102.632042748
 1331590.14197178 966447.009056082 -427607.147379617
 460921.962147934 246123.026675174 -1617706.52485238
 659138.807836646 -259374.341845645 1545399.94266721
 1574693.22479405 -511700.647189607 -385361.772174491
 1253709.81604319 -552378.018738943 1006523.83060263
 1336086.88359373 1027789.73132632 -220272.802835390
 1653875.05871478 -389062.072013708 -57688.7708446530
 1633559.45745735 -461137.304532221 93999.3900001409
 388507.602865179 1034280.21020846 -1292024.10553638
 -556230.563661103 -1593987.64167321 199526.835895139
 108141.899277566 1035154.94245860 1344157.57064571
 592152.489863245 -414456.621054733 -1538694.62142839
 -297701.493350074 -979412.753398998 1357248.86418686
 180933.693857206 -1270470.88404806 1114973.87019308
 1614139.61476166 448041.234377035 289503.637895921
 939155.150241299 1345799.53054037 443634.114302062
 -197893.500774894 -1645508.82296476 -378336.987216683
 1632698.25103190 -151119.592522533 448842.165836930
 1322401.49405874 325181.744889534 1017600.66887843
 -1354397.58094377 -179188.725120578 -1011681.07302812
 213673.158868982 1682304.35055423 -119146.352379126
 -830718.188546206 -459883.854240964 -1410111.38986499
 -204621.887327008 215109.572058773 1673875.07157357
 -283473.204610315 -265266.574649953 1655076.00630347
 1540264.10938194 -24088.0122978900 -719031.460378063
 -619868.327495108 1570526.31901972 -198016.003986548
 669817.650327221 1267386.48247531 913824.829685090
 1423178.16901287 500429.498234329 -783667.159285181
 1235197.27391850 587587.342079739 1009469.56860124
 1052052.71046507 494659.739441159 1240361.57493656
 291257.944949335 1328432.98579324 1020016.96640808
 -670029.996093906 1409613.56982288 -673831.869315771
 -1375829.34120084 884632.413241210 -463162.085380376
 -440518.669104335 -896261.377635098 -1375739.38125293
 -1062509.27510988 -1323420.89977318 -98138.4855652530
 1167611.86710392 1235581.20265258 4649.67199928358
 1033109.71977946 1283613.97412037 418353.286517649
 1673427.72040433 26850.4570740942 298192.416968104
 1463516.86750425 -246790.508030088 828983.005662240
 922119.871251549 -1354840.29556541 -451777.286453461
 820901.498377584 -1488654.06228703 5460.10968429133
 1376842.97233889 -988171.529069910 133493.290680305
 -522959.730555814 -1490820.72283120 -627667.660943307
 1424556.56681150 -521701.846108354 -767115.227147377
 446227.666455732 -1069044.74928926 -1244196.20386278
 911588.049325498 -961800.106754738 1064869.84320785
 940516.320926061 199449.902585509 1402015.97224509
 1009647.15849622 1012717.87194262 919247.043611513
 -290659.104996857 1673807.80857740 62327.3986921633
 339949.477889380 517738.658997007 1583155.40407842
 1239884.18095992 529890.640311240 1035327.54581142
 910630.387981528 1034415.04763727 995358.129371630
 713150.991819763 1349249.67923600 748959.922791622
 575222.852041377 406997.917805850 1547084.79579857
 980999.256177166 -120194.364014260 -1383182.48045551
 157083.205637358 -1486320.07816354 810047.833004084
 365760.674983305 1657908.25954281 86944.4165859838
 -497449.001419839 999974.762953767 -1281637.61041956
 1181293.99090853 -1099778.01154430 533884.662045157
 -32814.9040782374 -1668228.73589966 -325478.212464280