# OOMMF OVF 2.0
#
# Segment count: 1
#
# Begin: Segment
# Begin: Header
#
# Title: Oxs_TimeDriver::Magnetization
# Desc: Oxs vector field output
# Desc:  MIF source file: /home/martin/PhD/repos/ubermag/oommfc/docs/ipynb/thetaevolve/drive-0/thetaevolve.mif
# Desc:  Iteration: 1070, State id: 2149
# Desc:  Stage: 20, Stage iteration: 50
# Desc:  Stage simulation time: 1e-11 s
# Desc:  Total simulation time: 2.1e-10 s
# meshunit: m
# meshtype: rectangular
# xbase: 5.0000000000000003e-10
# ybase: 5.0000000000000003e-10
# zbase: 5.0000000000000003e-10
# xnodes: 100
# ynodes: 100
# znodes: 1
# xstepsize: 1.0000000000000001e-09
# ystepsize: 1.0000000000000001e-09
# zstepsize: 1.0000000000000001e-09
# xmin: 0
# ymin: 0
# zmin: 0
# xmax: 1.0000000000000001e-07
# ymax: 1.0000000000000001e-07
# zmax: 1.0000000000000001e-09
# valuedim: 3
# valuelabels: Magnetization_x Magnetization_y Magnetization_z
# valueunits: A/m A/m A/m
#
# End: Header
#
# Begin: Data Text
 1073460.09973080 1307731.00392226 -165900.680126446
 -1414653.71796856 821633.613774221 462247.837154536
 1226777.57185611 107077.696928074 1171985.98797572
 -361022.833297383 -729717.390880386 1492372.28709349
 701520.979730744 435329.259056500 -1486054.08757788
 -803336.198417457 1347072.35934292 655779.697006928
 1336343.78369615 687242.399743900 794910.797367166
 120475.849002754 -863056.917687086 1459663.77177744
 1489729.51529069 806175.156068389 144179.017231582
 -1426419.63132788 -655001.881971954 652916.204405771
 262630.326228474 1397654.12822187 931444.174177657
 446769.526466956 322536.847002699 -1608218.57113579
 820943.396243696 -1388420.62060259 -536973.109614798
 1512327.30592655 678453.167946794 -377581.009389906
 -234881.587252993 1167108.37680443 -1213543.85036654
 132261.660664581 1390696.77250365 -968746.272285051
 961657.177701096 1236132.18200745 -661205.490888765
 1459037.51515880 -477672.661286458 730094.759615999
 -383451.117454544 1641987.83621671 -216428.247322838
 -1497230.78020918 761087.446382086 262765.845866246
 1539438.13645161 44701.9881342514 -719813.834470582
 770502.120008132 1206713.77543350 -916606.975340034
 1473483.64845739 79811.9088730496 -844082.932495811
 -1674075.63396667 136541.717061362 262349.254355776
 111766.037322323 -1575090.12317543 -629761.428460382
 871695.674117410 -1318303.53847733 626276.641878927
 -1576954.13225227 257154.671887915 580592.059451993
 1290157.93163511 -998871.777271343 477229.173468906
 -214385.454034128 -1671370.26221823 -224856.228891164
 -934569.496797439 -1031705.28837245 975788.939064233
 -551905.802503806 880651.449633725 -1345307.77497963
 -761618.021210556 -1188013.90022233 -947924.555355456
 -1065526.15256378 776682.963723879 -1073041.28162141
 -469892.319202904 1043672.94056659 1256959.82492807
 -1092062.34171056 1018716.88547457 812167.315931055
 1296889.59047480 -959688.523089305 535794.110427476
 1124838.31173397 -1029959.85631283 -750947.046628140
 -1514617.69827122 -763620.090834414 113214.773583765
 -370821.022162886 -547985.658637730 -1565951.30430338
 1582713.43361667 360817.008291699 -504806.174265673
 278717.110075945 -1307749.79823148 -1049812.95370959
 893484.818895312 466482.817781252 1368969.92630170
 1640207.35353736 193789.385299739 402697.791832935
 665545.088522579 -1397122.18567138 -703632.953640112
 1080500.08888579 -363238.282811124 -1261180.99724751
 -1166199.29770436 -1217328.78864749 -219293.908633831
 1153481.67894026 -117841.319776430 -1243218.98300440
 -1036550.67700634 795038.492716396 1087877.05605778
 -1345430.30181693 973888.116447755 -362435.152261261
 -28778.6986553790 649742.334330449 -1570670.77565049
 -1527914.82633061 -576923.810522955 -471842.346902825
 -379417.776681972 -45696.7911987627 1656488.44065144
 795751.834002163 1129671.54957591 -990263.201760503
 1670208.69289213 -314561.630028686 -38130.0813171113
 -1304473.33730616 -16895.4538166480 1089983.42001045
 -823200.467609942 -1341645.32774384 -642128.339718693
 1351913.88778252 -24923.8087566099 1030391.98549766
 -855407.923826835 -646742.580682727 1319091.09548435
 -648834.807091400 370707.073222425 -1526954.37357163
 -409705.426789878 -662829.972904362 1510893.07705030
 698611.392189775 -1290133.99097219 -858776.110543855
 866283.405317774 1437537.61511447 -270256.668376635
 971147.937385597 -1282687.19074870 549167.783469592
 -841800.432298662 -420146.759033206 1415926.81062818
 -754819.530231235 -1522933.45527304 30350.7428509953
 1224874.31811619 -1169880.19979928 145131.743381657
 -1061207.75508555 1215561.52466195 -535021.756854623
 -1491397.77860236 -815688.576609760 19616.6247938116
 -930001.038435384 -1221135.07220642 -730703.225623463
 -856418.008705045 -1329817.70165440 -623003.270242054
 -83728.1543699896 -1697933.07429844 3587.66905629593
 674380.927829214 -1503501.05667398 -417965.233913582
 1402470.89843493 471223.445466304 -837271.666477480
 526177.443103534 -564306.894891688 1514825.08123768
 1658512.07291764 -360163.862016072 98080.0514075051
 -400675.119026047 -1271113.10606930 1055334.50648234
 -614771.205621865 1185959.58887596 -1051454.33485787
 745979.418322266 -1527584.22951209 1062.63141282627
 -1176803.68096202 -323184.766731222 1183505.26108975
 -838392.887584750 348695.280202996 -1437187.86789044
 1247860.72596642 -424192.081473750 -1073733.99247930
 -1678043.96231936 -250373.397903201 107152.331500338
 1417676.06918748 841036.974899066 415753.977378169
 582388.208306922 -207951.122546790 1583534.11881670
 -1209740.00010901 -917317.482603892 764890.690390151
 -1677358.13628429 -254126.898940888 109037.616791602
 227602.942757619 -1670998.34627712 -214386.163702774
 1602365.81923502 81978.5864397697 -561874.801635215
 1178999.89931423 -817026.178617858 -912374.627480471
 731403.094719875 1518215.12724593 -223768.497416024
 -697976.846547129 1478351.76692458 466159.173367960
 743757.136111674 1363239.62357890 -691666.864312165
 -381674.402750936 -827494.628165087 1435122.74410332
 -946413.685218654 994230.375750323 -1002899.34508216
 -231589.165082726 -1530516.69885176 702769.587526529
 1578291.37827986 -11360.7597092696 -631559.386270447
 -1446884.15227495 75822.9148064651 -889256.507137193
 -101262.501178238 1680784.28050790 233901.920155981
 -1312809.30369988 313229.053759813 1033643.69683164
 1556192.46638504 -399386.206952529 -555657.867093163
 -737904.065579071 114464.098603382 1527218.24246988
 1315766.32865274 -1021011.26165194 341020.486134791
 -147464.932758837 528740.980221265 -1608939.73455847
 1250433.10947309 -1150798.47235198 -45606.0825528766
 -1010851.61649020 531658.887254354 -1259173.47376865
 -78362.9994515786 1431147.09162125 -914153.839603048
 1037516.79985754 -1345341.56949114 -60124.4660058936
 1684501.18243781 39993.6025246515 -225513.365729636
 -981911.458534536 -1372858.46118569 202754.859743083
 35526.3878671457 -1624490.95957437 499766.943711035
 -658627.684028251 657923.910179926 1422443.56733233
 539460.998477834 1211546.43859915 1063549.27400615
 1432772.60121368 163245.589320426 -900285.260780611
 -1428209.09711746 -184819.805543149 -903360.622558862
 -210060.433174551 -1634405.50630122 417843.577654104
 915477.708762478 1270948.56037891 -660749.817729659
 -499000.032648150 -1113569.36875499 -1183622.50248454
 -43933.9475611131 1314884.77468324 1076637.28226265
 -28752.3515367007 910535.082443686 -1435304.55511030
 697167.783556235 -1468437.09471650 -497644.029836425
 1639988.88572040 381164.073010823 -234841.231812788
 734705.542479671 443324.794502292 1467539.05993304
 529561.586270736 1193900.72304862 1088193.72808816
 -1466599.06331490 -857777.676762261 -57486.0394546761
 -1459129.86780546 -853422.291979131 -180583.555262102
 -935657.114669086 654181.477976802 1259600.07845395
 322648.128927782 1474053.31377697 -782984.682508234
 -11267.8009655559 1023367.56631732 -1357421.03301488
 1244351.36540406 -537666.048030409 -1025916.61464878
 967544.608407739 124584.066862532 -1392241.44494592
 -1646269.11470280 181897.294306977 -383029.210765263
 49947.5920068545 -1677149.50025946 -273266.887551632
 -895368.522895891 -1442265.31496843 -90476.3474408520
 -606662.002555167 -1581575.70743128 -143455.555204351
 -798252.682193956 -237606.382689774 1482004.00211175
 935012.662115205 -1309777.11559833 -547937.249271452
 1477685.46350525 -835878.616056072 88048.9078038530
 -144401.931899225 -1059090.70866499 -1321920.93291666
 786874.026642091 -1318627.65271798 -729417.836142989
 -951418.219766965 -999650.870673187 -992724.285921221
 -1141698.94071078 -1159357.08673278 492356.247266511
 442939.894312365 -544700.432784525 -1548258.92167651
 -63513.9915175552 -1267040.21965144 -1131624.96202016
 81910.7803975659 722105.185445322 -1536832.69265318
 1564666.00991639 499873.546679391 438117.238581756
 -1521969.56084396 -646898.191624630 -393867.218155093
 231672.369479561 557884.718521160 -1589053.98085159
 1476456.72629368 -657672.127978881 526823.412029009
 1080332.31704413 -229461.712802524 -1292373.55555884
 -1307333.55836054 159642.904535203 1074892.13887530
 1447781.53494859 310760.624239727 -835078.715741232
 -1494524.18153654 38532.9340308737 809266.756883968
 1540601.20469986 -468982.142002087 544613.329400288
 -1633716.47572563 -211291.202622363 -419912.496404949
 360194.531577618 1494158.57832695 726464.068095296
 -103677.241657810 -289966.571039881 1671876.31637080
 1537285.52340699 8358.10021433270 725729.537557963
 1294301.95543389 640308.532189959 -897099.454778978
 157146.629665514 -644970.239335685 -1565029.81669872
 4550.68497234467 322601.458735631 1669103.82843247
 1695471.26637865 109847.590709657 -57538.6105121473
 -769937.654139169 404892.604530651 1460567.69358187
 -110438.650923028 -142429.044514782 1690419.25913689
 -1053117.90182519 301399.233644137 -1300038.91742287
 -270526.788172982 -1359749.30091119 -983817.612950868
 -654194.394723508 1550967.41669572 237759.892035128
 203518.135018204 -368279.879467459 1647103.60909633
 -1684932.77291179 187919.479339105 -125251.028150287
 -1000491.37420676 -1002034.83137520 940714.200407729
 52034.0355514653 1164756.36059067 -1237188.37676718
 540644.104785015 1126439.02432324 -1152752.82538926
 1262511.93298986 -356502.367757601 1081189.01254194
 1512470.16999085 -429949.124094417 -646202.549962693
 1055390.88956337 740526.508149814 -1108048.08602970
 -918617.510745972 733998.466085540 -1227757.35417669
 -1207979.52004751 -553870.848444501 1060194.58704012
 -466384.574995538 1214006.42269963 1094839.63841755
 135848.578863969 1641082.31008337 -422367.156810369
 1334644.06906976 -834805.837200657 641735.477492568
 1641848.83154087 13628.6677286462 -440620.782287699
 -726649.373869237 1435399.95656455 549188.175537257
 -1209886.84731089 -1112622.03333071 433873.285247133
 -689899.567862103 -1549548.90335380 113739.977047266
 961961.622137172 -1393098.20474306 -154619.628368741
 134186.972661826 -1639600.29157041 428607.909691477
 131430.210264365 204898.922105164 -1682481.06424709
 848389.382853400 -1111960.38371117 966322.699784361
 957323.414162120 847421.335574616 1120450.33835057
 759131.977571791 -1317814.87952307 759659.518426210
 -194091.104116394 -1500621.18343768 774896.578338664
 1602659.45732601 14500.8538275614 566808.952894865
 -376847.940477394 -1465767.48563473 -774281.155533294
 864950.284952259 1232943.96151049 788486.012771203
 -141449.134614589 -1691711.07348769 90032.1395720167
 -727351.802529442 1118789.74303583 1053218.33739970
 1169034.81094457 -1162518.48748837 414618.351074266
 1458881.96523155 -416892.522547334 -766722.920073634
 867767.019942219 -1461807.74847753 9924.99832036322
 1514661.00025480 683581.181120455 -358495.220505244
 1041577.17051584 -1327177.94759435 -209082.981802601
 493544.617749106 -1446022.18522314 745274.144280731
 -736949.692508265 1507950.38131082 270168.092521154
 812937.581812201 -1360701.91193157 614510.207354688
 480786.630297458 1569264.00711803 -443006.424435461
 -1201948.59133788 -1196844.37461186 -113503.862228616
 -583835.930669981 -913586.359379360 1309387.47894376
 1400757.02675803 -533514.623978774 802023.626827043
 161873.029333097 1214161.66770581 1178816.59601839
 910625.859110363 -1433314.04861261 -79820.9419215923
 445006.080399850 -981227.388137108 1314976.19795067
 -643624.744502376 -1025250.64535918 -1193569.56330782
 -1587077.50657817 334828.824243688 508993.758870573
 -618435.774070340 -1442272.88708769 -653747.743798589
 1230756.79315486 -560671.030742207 -1029993.06375803
 -1138529.53283122 1122255.94540438 578179.985710012
 224789.675084590 617635.164910484 1567799.86128376
 378266.119892538 -571996.646988799 1555549.60652980
 -669717.735561365 900175.918439813 1277169.31944656
 -990271.376613133 -1365221.18128631 213386.332336301
 -1665902.17411286 335691.077759176 45622.8736371970
 -1569711.18783802 581700.377610484 296026.109429534
 -145074.200792837 -1089688.26668334 -1296739.35612250
 86266.1200417997 -805524.332371769 1494553.01227155
 1047284.10875321 -867677.670723404 1019966.39909411
 133920.119493306 1481190.26982314 -823493.039543236
 -807398.777685941 -57270.9641240863 1494933.86156697
 -397492.211115567 -314488.239596072 -1622682.06659783
 1184485.02087757 -1210239.55873573 149383.552601423
 1038450.84771211 250622.150588431 -1322425.18673852
 -155697.869589790 -225222.339688194 -1677806.02904823
 1216604.54765034 -148363.412892347 -1178075.41029912
 -1012860.46662471 1327220.78044787 320310.279410655
 -258856.825459368 1536080.57382840 680771.337983694
 -165358.671225954 809917.244853667 1485493.37472068
 -446713.537232180 816875.997507944 -1422378.50811551
 -472936.078034233 727860.871357540 1461694.22864026
 1223991.68499861 -1035805.06659410 564758.549357394
 -1676411.98848129 -242994.399447864 -143515.040024261
 866228.206482708 -1062138.32044618 1005738.97335915
 -1263764.98353541 1137053.39352147 2765.26148276448
 1020819.52878839 1113688.81738779 -779502.859308184
 1221958.05625382 569646.968037554 1035529.25625596
 -641040.503487105 -314828.798871698 1542708.62455941
 314132.055583074 1430310.17510218 -863443.023397799
 -598218.534035479 232686.757159621 1574163.73309100
 505823.269083043 -1173717.90496700 1120950.08810117
 969550.424476876 -920932.520157780 1049692.93972692
 1527260.06933640 590910.346799813 -456400.747869114
 158561.513703226 1551594.10723741 -676323.866766711
 1661222.12647353 -350372.171482232 -87065.4234790660
 -1511878.82868585 -203682.392820090 -750157.243667344
 1360928.81440887 565545.004679705 847367.458540568
 1642319.24973710 438956.471662401 -10232.2005776652
 -447356.312018206 -1594719.37509471 383069.764918871
 898333.013985786 -269177.517164469 -1417935.56279416
 -780393.550477617 -1483810.60379443 -281588.349262083
 -1245634.20334577 -51890.9067041243 -1155726.07708599
 146828.616790120 -379832.060953619 1650505.66880675
 889208.547289692 -624383.642560290 -1307460.60220953
 -940839.865099768 669593.344269399 -1247583.70522750
 311136.503211663 884962.130147676 1417757.42091999
 988089.377334635 -1196433.83562965 -694424.552675786
 1398810.33686890 -761915.138514409 593982.291967777
 -1163409.13571060 -1194088.09139395 -332615.112308910
 -962641.053706272 -1207217.06464071 711301.033711845
 117161.191284452 1505531.85772002 780799.001438218
 49117.1052922371 1645207.04926987 425301.393132498
 59833.4824299751 1105009.33477995 1290493.82967509
 612335.229576575 1569357.25122512 228393.048595062
 -1399573.36625167 954266.003018015 143425.199888280
 1434935.78843489 -279639.303936980 867618.085774132
 -410112.148667780 -291238.976024694 -1623880.50187173
 123759.471920379 1047848.07663034 1332928.35569361
 1037753.25021660 -155379.964257420 1337507.10591467
 1616338.25711540 -414326.277577790 -325245.098800397
 338057.648738367 1610476.44509488 -426711.431677245
 986855.589711193 1362925.71889776 -241970.101092675
 1300804.45894247 237257.442799927 1068464.62993935
 963728.530919055 -649320.417811113 1240810.34558316
 -559825.379449921 -1566836.60974671 348738.559498643
 -1030935.64706278 -83540.7327474446 1349145.15067403
 -1081299.07242180 -1276947.25955917 -300329.839150374
 1419362.35907939 -933758.965626329 59200.4032168336
 -238854.387045820 1446214.96550154 -861052.179225122
 -1044671.98279193 -675085.561069942 -1158844.22318293
 141345.202094509 1304023.38331385 -1081454.83013188
 -934635.510645985 -6331.01970025653 1420005.76774500
 -506950.071120223 782409.719987969 1421561.34424778
 1554565.85969495 -664507.172568296 -178199.903131804
 -614119.697558484 1264974.69577765 955351.252740534
 337599.722891564 1593990.42965339 -484995.811607632
 796432.320957977 1089795.48966309 -1033460.85985076
 -871576.771779259 -1337847.26760110 -583539.732552218
 -1560581.85683021 -283626.661846496 611669.996666657
 329575.062685022 993443.147507597 1339571.19658731
 1185021.15719327 567092.290631698 1078949.11414321
 -1659050.39888866 307977.555251974 206643.653201344
 -60301.5486541196 -1498173.94145632 -801148.278642070
 1449551.74715014 77427.7056737067 884762.500747003
 170401.445138329 1143919.34322811 -1245958.21907612
 1063553.79068607 -724590.457285107 -1110775.40642951
 -655631.424349525 546368.051429787 1470248.07015083
 1264249.03363216 -1131642.28356993 -105167.119370922
 -621714.710945672 165375.359423551 -1573569.76606990
 -1349245.50994612 -1015000.67205965 198267.974238684
 429086.876951920 632589.985161280 -1518457.88967008
 -573257.603492021 -1539872.61881968 -436082.604385921
 648938.580869456 1281390.90705432 909349.251705657
 -862740.228959571 943007.999849595 -1120899.28608883
 1607296.16631867 473021.562968465 -287836.124737966
 753289.761618386 792050.790917827 -1302002.33473192
 1233356.37503109 284936.826401781 1134743.60854347
 1438551.69226208 904132.301268279 55801.5276961500
 1286927.57144007 1110738.56462956 -8790.15995430661
 -1151961.96179637 1243505.66333115 129140.635888181
 686020.779072904 464835.108841659 -1484352.99449571
 -1549059.30984689 454015.740092537 533183.797882964
 1193424.94112809 1138897.54401552 410669.324553001
 -281907.543698540 1416364.25432620 896906.035141282
 -1336881.05146984 -1018767.34578429 -254680.484891439
 1675701.92790822 -215964.288885043 188102.298579944
 -197924.839004674 1664682.89011036 -282235.067769384
 759633.895456618 1503655.84167102 227981.259497402
 -911586.635094532 -1239223.44533001 -723419.006704579
 -118338.121136402 -16539.4782126546 -1695795.54626917
 -907424.923302602 1316471.19806896 -577480.383410671
 90818.8622963342 1603070.20454057 558496.064055459
 1680277.34059335 -126779.271454547 -224933.490209843
 380066.194699117 391625.960498212 1610024.47022112
 1379379.23792329 -662281.771052925 740740.017629102
 380845.759489564 -130309.450462457 1651658.54661276
 -531342.921783637 878002.141315548 -1355281.12925538
 1288080.88414322 -1014823.03477361 -448309.986502321
 360698.118705629 961552.039803231 -1354737.81297802
 -718743.462887840 -1319248.60702956 795607.282147777
 986094.257974919 -964530.836059860 993628.894848857
 -1235201.89993448 289233.314627175 1131644.97794496
 83396.6877853796 -1523438.37302620 749786.980453598
 -1640945.56103281 -443607.062286622 -22592.9196018104
 268776.681645536 838440.792234644 1454226.98823827
 -941377.141735753 -1240304.02507598 682242.627221240
 1067981.41579468 592659.743084998 1182442.44022431
 -368968.794021314 1647573.51088549 198402.508217293
 1479712.83070082 -473580.333753601 -690051.886557231
 1537895.63970469 -592516.675427321 -416894.459927054
 -751871.978001387 1430405.36114890 527853.229120342
 -294293.699029940 -1566578.01887171 -590952.222687481
 874004.275684357 -774443.735676583 1235456.76830748
 -44897.9272978455 319146.043398920 -1669170.44639161
 -1334293.67733305 -231825.305667759 -1027578.42050185
 39712.9118554806 -1623134.55659814 -503842.332291471
 358986.934726285 1616901.98880152 383087.900233782
 -1573909.96396240 123351.195730130 -630548.894100868
 -308709.108463779 12413.6707649849 -1671689.14189500
 1458949.98554188 -370730.856082043 -789951.626389891
 351630.295406061 1655480.52975818 160437.997195857
 158968.249468752 1129548.56633094 -1260495.58982194
 -1307463.60382545 978057.461750426 -473225.660954772
 -752605.324730870 -1424424.00942380 542772.020800411
 -1168117.12471259 -1230645.52648901 104947.468219905
 -1447838.27295465 877040.696592680 156728.912099626
 637687.311245452 345647.077131687 -1537492.43612672
 -661013.244359960 1564798.05311413 -66847.1671124442
 -1264735.20308043 777415.210864526 828293.701536820
 -184667.473188242 -584082.750209803 1585794.83706236
 560800.147236181 353465.343872745 -1565428.19878166
 -519111.310877202 -855655.282263890 -1374182.47873172
 1075757.71763420 -1125181.83060425 -683162.631463791
 -41634.6304847247 -851774.292029764 -1470628.13551951
 -1674051.55156021 159304.570799434 -249346.057601202
 250026.339723955 -1032491.10934628 -1327195.89306369
 -385752.708378102 -1628393.70394071 299213.624264032
 -197466.694832597 -1462834.84425763 -843279.978926123
 1106358.83396282 -1233867.10328155 378869.505175616
 -821185.575751791 -208577.135684465 1473821.50501574
 813163.758471658 1244218.64404007 825036.161468896
 -360970.257147759 1462827.21275689 787297.287606525
 -681918.829826654 1536040.36361440 -256059.975152693
 198552.638127708 -1642348.63351960 -391494.336956259
 169321.136198533 1680882.14160431 -189645.930281009
 -1287972.59958725 -935010.334355323 -597396.231458820
 -649527.201360983 -1188829.21293207 1027034.33105787
 1620008.92939122 363701.979038463 -365091.685931390
 596831.975911788 1350558.73157450 -842486.026647987
 1233554.65609975 974534.644621336 -647012.470395579
 33519.3875393652 1699607.29030787 -14543.3624496867
 -266873.001624352 -1659696.86806321 253347.798777057
 345332.411841948 1500678.58149365 720214.773784618
 1353636.70567588 -1017962.57054974 -146355.300576154
 1530066.99701678 -587296.890713042 -451638.513414043
 -1207667.11175124 932345.042367946 -749848.564155676
 243376.264883178 -1043976.20314836 1319424.75380427
 -405027.081049711 -1563124.97196977 -531595.133180171
 1284829.99090366 768296.254806860 -805563.628352379
 1096999.75142018 -68698.9040780834 1296870.08060273
 349977.733648697 -1457536.23979219 -801937.463673181
 624217.258365878 1452838.01874991 -624191.081026491
 -169984.650709428 1121095.40482192 -1266590.03304557
 1474136.85800298 -575838.471768402 620750.012733409
 129994.838530420 -169693.155460196 1686506.91517865
 -1385481.29211666 -971482.912195392 -163286.681964921
 -1506362.09654589 -395723.483941332 -681378.131691369
 1502693.97106803 346541.798877690 -715415.691012162
 -1131027.39191099 986330.164434724 798705.105450811
 -962977.102902047 -1193691.77275400 -733331.474127343
 -791824.809546881 1037428.42597612 1089383.18876452
 1178055.77844879 1055053.68892912 623735.758426972
 1453999.15497396 -669030.257919223 572961.579273462
 -857053.681408115 706334.895939061 -1287070.31741220
 -5176.36577305959 830625.004352411 1483251.59948740
 187988.201518721 1449388.95363411 -868292.633374934
 28075.7355097427 1243681.07996111 -1158649.69875383
 -1693965.37216527 -142225.488823480 -15913.1465747331
 1224715.99220660 -583922.590599322 1024258.33978601
 -230546.524335894 -118903.831015053 -1680092.31266814
 750794.495743602 330082.252382587 -1489078.01401510
 534437.494755919 -486524.064626213 -1538723.78896883
 -618056.138483053 -345530.592693951 1545514.54836115
 -1346158.06479662 -1038053.66991869 17408.1288870198
 -18074.0717540879 1061978.78446628 -1327356.16519220
 -1033846.01974520 1297194.78391401 372086.145997532
 -1332499.71749296 -477386.015341782 941566.298906920
 1568411.22636075 -630880.121486131 -179099.127131369
 -605881.201064222 -1358959.52321486 -822275.491827780
 171517.210024293 -680608.012574202 -1548339.29740392
 -1603934.01780034 -73045.0129843945 558623.390685506
 297166.238308471 1671417.93895288 -89745.7528582315
 -701298.407757257 907583.124988153 -1254780.22558290
 -1060950.88923053 -425529.155013614 1258295.73188275
 1260327.61952973 -398761.450536709 1068907.66533708
 -1124526.59515164 96311.3184249006 1271284.41614767
 133964.117148507 1690311.05654697 -122074.352063292
 1268017.84999773 -968056.772034248 587364.297694172
 755707.837820456 883073.199647556 1240599.60822215
 1008768.71163770 818464.112856109 -1096586.60505565
 726200.322545284 -814649.185015057 -1303449.19229306
 -2165.60215123175 1082483.12981814 -1310811.04047320
 804353.066086617 -1235945.62063746 -845845.475192812
 -885992.470472052 -424314.389192080 1387434.55391286
 1191109.50690090 -265923.278803829 1183445.37362758
 1034895.91952559 701312.928556999 1152020.23071997
 -1518772.19170050 -713902.460148752 271430.114598236
 213876.911154527 1647951.20943013 358487.765778387
 1608925.26349743 -23986.5096669060 548437.912469330
 -161231.523589388 315270.904690179 1662711.23543954
 1459902.43459558 817845.664972937 299688.754788842
 -137623.368320805 1005120.17943156 1364108.95217043
 819549.990178583 524121.483077526 -1394142.92114363
 340400.741233198 -1555874.89793449 594458.272164857
 1168925.53707067 1214921.43810750 -218126.082830167
 -811169.964219958 620191.900539279 -1359178.16920846
 1189295.46038297 431473.472344465 -1135520.56369555
 1264577.30417762 -691898.739664668 901177.216650146
 -1277676.29741577 -1082631.35568786 292322.812492293
 365188.023449053 561060.081164730 1562641.76728155
 1159861.81482516 -1217619.60110451 -249245.015028560
 251710.883107544 -1680933.67140745 -33220.8316253507
 -1626442.32403348 473780.769661253 -142187.020827424
 -888170.393674514 -1042621.59233283 -1007022.12835738
 560391.556064535 1303988.30648928 -935722.074352629
 -1070294.19884578 883511.698901508 -981772.583555496
 -408825.164239691 -1604677.82953257 -384540.047967759
 -1329100.71476834 -917118.740984709 531398.630913658
 -819205.965781051 -1407422.54688993 487917.370191498
 418358.707407799 -1641018.75087853 -148436.690885875
 1477303.23374716 -549825.698595275 636605.730986138
 -488430.042864618 1193905.43411806 1107260.54188282
 141228.245341008 668419.586427904 -1556685.52996341
 1290987.64228085 242352.108347779 1079173.92623132
 568516.718376601 1240803.31695486 -1013506.71905031
 -1553269.49488658 -613704.214952577 317365.739808562
 1227416.77406634 -428042.020850195 1095549.21894320
 1018408.48152021 -1360386.50194986 -46826.5958651896
 326216.574652020 444286.588966084 -1608164.22460120
 915853.289244555 1177949.51997063 -814645.739558547
 -489032.229543549 -1575358.50353665 -411209.270083294
 1170509.57669791 1154848.54658910 431546.249316946
 -18750.6242705755 1446138.57802214 893494.055517763
 -16015.1862444859 1253684.85826486 1148049.55902042
 -1318300.50729146 -152699.065588604 1062434.35931047
 1622636.33674578 -255802.236764011 -437740.258987850
 321753.946978218 -726942.648898911 1502673.87773122
 -444218.880134166 742690.573406044 -1463243.07574174
 -136972.287362882 -282878.816209119 -1670693.91805762
 198706.075210918 1638054.75600937 -409014.073094487
 -103350.823581625 1595851.24817569 576695.240973165
 -153312.067317886 -1452306.55460599 870230.476059767
 -569926.132725571 1582991.35157887 -243562.279639093
 730567.902046708 1394034.99686373 642601.718032405
 1239733.08310682 756774.604511393 -883376.522563891
 -356760.326691581 -28035.8794557921 1661907.35564954
 589746.225673572 1591006.14368330 -104397.509863794
 1147819.49822876 493932.333256693 -1152623.63746779
 1584011.92005663 -616329.817028185 32307.7972091261
 1204568.25745450 -1199582.67741595 4088.17521842563
 238604.277929164 -1388129.14034086 951927.249473642
 995404.573248022 -275356.555205680 1350314.22382429
 -474700.998410394 -838511.946143663 1400555.84618484
 714120.692556515 405212.518073803 1488567.91973322
 -758086.637769837 877037.773511311 1243426.47288416
 -488884.958375196 1609757.71268281 244277.718862535
 -302861.013163009 -1347791.78841801 -990824.152803542
 -1073904.52487873 -751616.439672301 1082497.94413631
 -745207.397089942 1284499.15555386 -827482.842543488
 -1179908.82938130 351142.012459994 -1172396.87880580
 689376.641510483 -1110354.29769733 -1087139.90807292
 -995567.443099065 1065689.37308381 873585.500301727
 1209714.65354550 -823525.393306737 865099.059978841
 -1122596.93312882 1275198.60611431 -60370.8596416446
 -1043775.56836945 672145.458734519 1161358.27597585
 -1649507.37416006 81693.9761704623 -403052.746981141
 1663735.36775089 -119694.189926664 328112.674233403
 -1327070.99816805 -976750.916531691 418138.987509837
 165288.806497984 1022059.39359919 1348359.82082014
 -1489240.38890676 819487.739313970 -24554.2086602128
 360782.555548412 488470.283564532 1587839.01252184
 -1154748.65675043 -1059508.58531129 658784.560675745
 1044958.85941176 -5585.89428363317 1340906.32779547
 881741.945986517 -1453027.23642151 -35256.0761453953
 -725810.680359883 -331047.829750200 1501201.58229773
 -540466.525718621 1209872.21228444 1064943.73772496
 -65435.0739581360 -1017243.23476871 -1360490.51904575
 555657.141789941 1105561.02736483 -1165752.95648343
 1206480.29680577 -437988.487027772 1114706.85772116
 900790.891681737 682665.773231470 1269859.52432602
 801546.688319234 -1048453.89971413 -1071572.36182103
 -22236.7805530156 -228025.624364211 -1684490.97362495
 725343.631162017 1507468.80476533 -302348.175771068
 852688.052297245 602736.875850113 -1341503.38947018
 764425.522674373 1355787.10476854 -683736.021303077
 357219.181395205 -677249.757639815 1517803.42015037
 -363305.275399276 -1611352.42434189 -401936.116111235
 -1156660.57431204 936713.531144931 821403.723148447
 1101390.69421545 794440.299221162 1022645.17290652
 619676.696987196 1214629.43145455 -1015222.20989074
 191812.051704102 488597.465749059 -1616935.57487139
 -85631.8562207394 1681851.59723551 -232470.191802201
 -641496.016416331 1001158.75397142 1214974.90108577
 -782559.970097123 -1066365.55245462 -1067925.27909949
 -1130327.90157981 -1235389.99998870 -293547.922558014
 -432657.017223409 959910.644910371 -1334683.28049583
 1319317.40205603 -73625.2969040258 1069570.43166306