# OOMMF OVF 2.0
#
# Segment count: 1
#
# Begin: Segment
# Begin: Header
#
# Title: Oxs_TimeDriver::Magnetization
# Desc: Oxs vector field output
# Desc:  MIF source file: /home/martin/PhD/repos/ubermag/oommfc/docs/ipynb/thetaevolve/drive-0/thetaevolve.mif
# Desc:  Iteration: 917, State id: 1843
# Desc:  Stage: 17, Stage iteration: 50
# Desc:  Stage simulation time: 1e-11 s
# Desc:  Total simulation time: 1.8e-10 s
# meshunit: m
# meshtype: rectangular
# xbase: 5.0000000000000003e-10
# ybase: 5.0000000000000003e-10
# zbase: 5.0000000000000003e-10
# xnodes: 100
# ynodes: 100
# znodes: 1
# xstepsize: 1.0000000000000001e-09
# ystepsize: 1.0000000000000001e-09
# zstepsize: 1.0000000000000001e-09
# xmin: 0
# ymin: 0
# zmin: 0
# xmax: 1.0000000000000001e-07
# ymax: 1.0000000000000001e-07
# zmax: 1.0000000000000001e-09
# valuedim: 3
# valuelabels: Magnetization_x Magnetization_y Magnetization_z
# valueunits: A/m A/m A/m
#
# End: Header
#
# Begin: Data Text
 793927.150490535 1297542.11089233 758988.899902406
 -1634041.84651880 108346.719106590 456254.569603718
 1173248.96269029 549410.967628484 1100742.68573345
 242290.104885043 914003.981240504 1412760.49893508
 1409227.45576278 949538.903000631 -49536.3463803957
 -280812.523054270 1655481.88604060 265563.649408882
 1013027.33004710 598121.887092290 1227202.44326631
 1196711.76889732 357074.959047761 1153420.31185673
 1038761.08085177 937083.302887366 965841.757410270
 -1258073.90619049 954180.996593878 629911.638487277
 -665226.576360281 1248624.60114528 -942555.148263889
 1399704.18037052 -327121.374618755 907645.202554842
 1183565.15239043 -7425.30454893202 -1220294.38862078
 95310.9683463678 -1684885.96636925 -205122.157859251
 -610654.693210263 1135030.31698240 -1108515.68558641
 280868.265099403 598263.478392098 -1566267.48292948
 -967031.973849233 1398008.47079658 20529.9082864757
 1323844.83100760 30727.0152051869 -1066063.18478364
 1054458.88323640 1300200.00082475 -295966.926225123
 -474541.084218870 391576.836227615 1584764.44329066
 1522935.48975173 746610.287664279 -115067.686204777
 577234.501552137 1430857.01911712 -713756.625931505
 1651436.01512539 399725.021382932 54580.1724729552
 -1247579.59443090 874626.411753357 -754038.324903363
 1022796.29883589 -1342439.83244798 204311.104310620
 -1116865.38471576 81627.4593297259 1279042.09090518
 -1647867.88136214 -275074.297829666 -314428.968526409
 1376282.88983948 -980517.956989975 -185553.073688588
 826664.886509417 -1482749.09986710 89890.3346066221
 -931595.110275982 -832022.845669598 1153199.26066302
 47823.6673916377 -527693.349049680 -1615318.11919694
 879485.348361352 -1294843.23381877 -663239.415182371
 -871486.734696604 1185964.11273321 -850881.892248728
 -226081.783566341 1539627.30311783 684422.964718150
 -739579.573725291 -802773.042465308 1303294.86165615
 75483.9895238631 332603.381486536 1665436.02637546
 1176814.69063278 -60810.0841618041 -1225320.08780364
 1039503.96933894 -136759.917482585 1338180.93795224
 127065.123880757 -325971.892321903 -1663609.56348214
 546857.412236462 1399220.85639056 -795693.386753788
 207647.468237001 -429773.992151434 1631617.86108298
 1073641.34914870 359439.479698244 1268107.84787116
 1175266.13565164 1187523.69690973 -313906.004511407
 1218959.25122839 -1059733.93265883 -530190.848483991
 1325442.13643839 262005.268200826 -1031773.41620563
 -907289.145976117 -1281786.16169522 -651038.125827180
 1434286.05923064 -487639.737104360 -771382.516714908
 -95514.7272330473 1473806.65600197 841885.311432555
 -1534442.20340955 728794.127005373 -65926.0558361995
 911118.201104369 -439495.406741074 -1366275.01297134
 -569730.077156946 -1183427.31548116 1079308.77331550
 -627815.427656667 1486375.98030540 535288.925691006
 262917.523644856 1028418.71697320 1327866.45350339
 1063214.12636103 1291654.18865208 -302001.951059719
 -286.206819566390 -34287.9332066209 1699654.15768093
 1161207.41031415 -797680.581979095 -951474.140145177
 643458.602088639 1487685.66155234 -512593.796109271
 -243554.910799024 -1525961.20132739 708606.673316842
 -810323.502985443 -1322487.78044929 -695989.864201848
 728272.949164883 143437.342100755 1529393.42237560
 495747.669285955 -1038132.65609871 -1251604.90440833
 1230879.64097900 1097879.28729844 411820.810480082
 570506.709704841 -1456323.95475308 666065.036609862
 -624094.277239852 -294396.434183842 1553652.81599729
 -1447118.90371796 -769392.730129853 451532.618229797
 1186689.79704943 -860699.968387733 -860792.013204203
 -1601896.61161654 -182413.970373777 539121.868508331
 89279.2189328794 -786601.387702680 -1504422.63939724
 -1160619.84612822 1108598.11659774 -560331.855822282
 -65668.6709572581 -286379.775537886 -1674417.58525691
 -990748.168361174 -737420.491366318 -1168173.39714703
 1190544.01074952 -911619.505756002 800971.182498865
 1244547.84519988 1092702.16180486 383539.628454899
 807947.418722497 945057.960966425 1159347.41082802
 -385471.949258547 -1585072.76866995 478493.149748026
 686084.070541318 -1290637.98320319 868068.110497479
 -155965.235948164 1496151.52838197 -791963.035309052
 -1257596.00201538 -941053.335716820 -650285.256676769
 560275.468749829 247836.278345380 1585770.65752052
 -434102.939326625 -873172.854464854 -1392524.25626762
 1405382.36153634 682473.830695445 -670171.536472887
 -1674430.29218968 292934.123501428 -21743.8700796814
 1323163.99316083 708685.810148936 798123.718289490
 523008.191221219 -1250004.09366795 1026621.74033520
 -1136032.23136509 -1102641.84627460 -619363.970653604
 -1522216.85432568 148912.318823476 742078.816372933
 1175128.63332595 -1116566.81440289 512202.346843178
 730109.632859013 -23539.2886642767 -1535052.38539134
 416028.882737234 -1539593.71041148 -588702.960405191
 -1159719.86538037 265456.404027896 1214323.98123512
 1674113.41227921 -293797.614511680 32050.6557515625
 833996.648285462 1457753.72553556 -263445.755964685
 933734.424693909 -24053.1029738912 1420408.91027157
 -1490853.13505462 -284585.958364908 -765746.539005777
 -441517.320639336 -1555670.02666225 524359.822755444
 1179625.79539746 -631080.017035753 1048914.19807869
 -1587548.66424945 336943.789882394 -506120.658637332
 651368.321419028 1491433.81042892 491268.255600973
 -778843.589616905 1280409.78295397 802467.102520982
 585475.389122991 -1590628.02150895 -130847.491079571
 -1375000.97275791 122329.126090650 992173.326503338
 647433.952948498 -1339870.60786554 -821934.322648421
 -810111.554322821 1239291.52417135 -835389.602323204
 1538273.90743392 -594379.410644045 412827.448106843
 -810089.097565976 1440018.55407288 -400127.752012519
 -1206051.43492313 712410.258534030 -963281.661745585
 1378254.21445865 -638035.194752108 -763758.083809661
 1645753.42091671 268723.532148082 330580.309169805
 -1074618.47501283 -1189979.44187843 -564928.368085553
 169906.417625682 -1272153.35755572 1114790.40366757
 -619378.433769882 -532621.413321338 1490867.12548515
 1546288.52648820 5748.45425962426 706370.121200346
 -483418.119664936 -179981.828435981 -1619849.82730266
 -198353.097635180 790711.932858079 -1491787.74894231
 1174915.18940747 -1060954.56908295 619636.748459630
 -493013.062980529 1559054.63508895 -465066.408739892
 -1527459.04832190 672650.211001834 -323126.212707582
 -726302.788123038 1046360.76540528 1125883.39031411
 719674.912631272 1240909.07019243 -912256.926333432
 674789.555915789 -1540907.84158995 245483.357793517
 1191925.82699442 -529795.237624590 -1090243.01379737
 133070.315414257 -225199.293557126 1679755.21113552
 -1161766.47133048 487556.462657946 1141309.49431466
 136842.372090384 -1162312.55892445 -1233005.95317588
 -742693.219678486 139042.235325459 -1522850.62899790
 -546633.053216462 -96775.8409155890 1606806.37966941
 1473903.26700809 739552.295262429 413124.148501330
 -285337.960833501 1595395.50452290 513123.213522355
 -9430.32897815164 -137413.144314085 -1694411.01762975
 1489515.71862819 707611.295271278 -413072.849221591
 -981963.093185152 1229566.22204112 -643362.564373911
 -1122779.94808443 24863.6483340470 1276223.72144191
 -1390388.73376821 -708392.422319153 674536.392651461
 1086129.21310832 -403079.145545089 -1244126.41434033
 -1688509.70569965 -171096.965498809 98289.3796662035
 825021.739147147 -1448329.05247151 334188.697746644
 1230320.25992222 530979.025339458 1046123.00073867
 643916.330483524 -1169614.02834377 -1052318.76541194
 107232.379108248 283434.555536702 -1672771.97178770
 1194812.20930079 715674.635805168 -974799.261474335
 293939.094047306 -1666429.97915650 -163128.579835373
 137989.684509180 1588773.36226566 -588861.656354125
 125365.814212580 -1431856.74934600 907782.827541430
 929089.702893774 794942.600022600 -1181041.31453818
 757129.509809914 1296185.90573098 -797907.891400598
 -1645970.18001533 412408.787371322 103446.404476994
 -60600.3631214931 1494872.42367137 -807269.492137807
 1139516.65247097 -430732.166957037 1185736.73262232
 1578291.82380876 389916.289813981 -496950.908879441
 -294092.398103862 -1071306.66416300 1286783.46768113
 1539828.80763971 -50300.8916513718 -718607.725718242
 -595239.115323373 -944496.784500060 1282035.96660082
 1382381.53973596 -285929.813889065 947240.951461977
 433503.722284522 -984787.073280975 1316156.88391018
 1002847.56425960 858604.507801224 -1071025.23875117
 781719.498485011 1179655.55914104 941980.566400376
 1635733.50396580 -31716.5512379613 461919.867922289
 350879.127360069 1409994.06230765 -882496.788798808
 -1605524.66568849 -460796.329447550 316160.229367195
 234638.605990359 548728.385540494 1591804.59965444
 -76137.1713610970 1433417.50523299 910778.451012515
 -1154085.84061241 -615710.864334723 1085811.21933701
 219223.586693470 444307.749548105 1626201.59965754
 -202165.008688438 1139589.14148592 -1245177.05482770
 -1180925.64524211 -1200889.01609388 230825.023415087
 813361.854242364 1319871.06307274 -697411.550611726
 -850865.099263583 707368.207744669 1290604.04521575
 -1649612.86174803 146246.672598935 -383913.163500815
 -1503481.57215429 -792501.542869044 -38528.7781100309
 1358266.70999299 285229.969679223 -981710.450653150
 1121239.93211295 1241144.05795225 303944.800983945
 649061.458614295 583112.420861508 1459006.21231663
 -56175.2904233723 -1574003.02643537 639811.542188897
 326090.514706606 994979.859487426 -1339283.41116911
 -482763.639951188 -553689.496069091 -1533090.73765509
 -1669671.42490423 -261051.569103088 184524.825232530
 1050559.80688691 811317.841658189 1062114.61338258
 852586.267037751 1338164.26196744 -610256.556910097
 469923.287205141 -1597994.19450306 -339980.379546848
 1470211.45740773 711245.022059285 471814.358729060
 -1081393.99697441 777074.597406433 1056760.18725789
 -674841.338767087 -1212507.06669526 982046.730408031
 -1601921.93938430 25182.8047481743 -568517.305334024
 1258632.81929991 -716256.401690908 890404.511004942
 1065319.89137014 -758203.224263101 -1086379.95184381
 1469541.96908321 -577232.012701048 630277.402907747
 1058470.70607897 -681743.478840670 1142307.13620765
 1686136.57960103 -103855.818549605 190151.002849670
 922167.664620599 938550.436033642 1076443.16029656
 -1043603.13322110 -838980.047666959 -1047380.05516042
 388491.988737269 -1133068.63287797 1206328.91363633
 -1283547.04168534 861279.420887100 707604.939876191
 277178.129223861 1121762.31455542 1246924.85512289
 -328518.185912964 -1651783.87192555 -231702.054309151
 -1266012.19742834 571980.873385838 979821.920781237
 895439.004797090 1440180.21512604 118616.763771005
 531556.496939899 1607139.00949905 156690.442297546
 -1522113.00251420 -338617.089137948 677134.015185282
 -1082461.17573734 -125872.088734876 -1304773.55134860
 827522.528077409 -1295900.90226720 -725153.305879125
 1356478.71126126 984044.851866278 285694.304126750
 -1125990.36352443 1094368.54696805 -651539.089124483
 1439827.06196454 712470.112634973 -556133.410465944
 442341.809449277 1640475.58530058 -56334.5155821259
 -330507.167970051 -621766.021837479 -1547311.22467615
 -941969.579132190 -921688.400673061 1073863.95975201
 161271.335841138 -1660510.71793038 -326643.095555926
 -722835.999942950 378297.635787037 1491441.92509947
 -1020790.62367770 -1056156.41804613 -855873.894467897
 318883.806967543 -700384.478696680 1515841.25146886
 -561137.784114755 -1502779.92616947 -562829.353126553
 -1381561.22364075 -988515.937650634 64224.8109609692
 -727860.188565115 -1289126.90002744 835686.174067507
 582259.225807706 -1458997.53250153 -649846.438873270
 -736476.702887303 -1451417.33548102 490907.103604575
 310435.941379385 1394237.91373067 921808.096197819
 79714.0428266050 779822.738455631 1508483.39996296
 -1611349.73989584 361609.212408739 403473.410820036
 -145039.278030765 -925502.149962325 -1418594.15557919
 -1248803.69601665 185175.942607552 1138507.44358329
 -318037.337273615 1257535.23502850 -1098843.65801589
 726622.331426406 -1525527.78779653 -186507.254907358
 -1382455.47033265 -584766.960750837 798037.890179135
 620990.701038462 -1011265.35646118 1217256.31156516
 724739.535837742 1388639.77966888 -660630.129130411
 -908638.005785382 935159.278637737 1090804.33535080
 -1193901.93894819 -1114595.24413327 -471461.135122779
 10636.4849210267 -1698642.34688563 67089.8096240868
 784899.955026397 1268625.96342075 815181.099838761
 -176466.949828412 -235467.622787348 -1674339.99362051
 1679643.69568155 102947.977275143 -241244.211396196
 -1354020.59686547 1016962.22717704 149719.911031201
 -467285.285337692 1369540.37987960 892190.344033213
 -281815.792942733 -278479.068359133 1653187.60802696
 1182450.77495610 852556.384206005 874618.646356973
 1695991.95120580 -100224.421063750 59719.0661981240
 1645010.87210487 -274049.053353748 -329903.541982636
 136816.444800282 943811.662634088 1407302.67032650
 782744.923460147 -1502010.81391168 145855.749594381
 -811271.070828925 -584287.245819357 -1374935.51267284
 1273417.34937650 1067712.63742573 -358326.636169174
 528549.261454236 948164.044868356 1308289.19671266
 -421208.050742974 -182425.558208599 1636858.17763836
 1134611.07715369 964141.503691959 820419.931778082
 -1115564.71902491 472625.545677313 1192535.30398060
 532332.054150986 -1498758.74008271 600287.283847569
 -223918.668175103 -1677419.28338133 -161632.230025910
 1513252.91531053 217367.263063651 -743516.702739359
 -722180.506493308 1487711.75989020 -393915.010535875
 1001699.96150605 -79203.8168834324 -1371249.04467054
 -728807.530698660 -1089063.68801317 1082949.61408557
 1311541.87125871 296801.892476911 1040080.07218547
 -1323711.72963088 -832988.891713036 666270.788133716
 -1001695.43276594 -1314605.73013160 -398017.630615815
 617497.732865623 1047235.84087081 -1188273.38752554
 658313.047276325 -1561937.50183685 -130288.802824447
 -59542.6320765638 -516733.239513107 -1618468.85485872
 -1686313.55794996 93255.2461025047 194036.190821444
 703984.292597466 -1481919.09539131 445333.482337270
 -601641.292043028 1388635.80741284 -774414.843659186
 1257227.12961837 495779.223691508 1031301.55915106
 1483048.90538526 -796143.318205462 -238163.307653361
 240744.888425064 -1678618.47358814 -119506.982330908
 -1271788.25115537 -247115.583353500 -1100676.39780593
 314394.121234437 -988244.965773561 -1347044.25471342
 928131.695501319 1408278.07155881 -212895.347465462
 204030.995743310 1686954.03942328 50570.9565805058
 -794680.642387893 586384.881691129 1383703.52573738
 -528637.761606548 560842.960815959 1515254.85985256
 -868838.320181205 1457779.00239192 100001.767833925
 1478878.06789842 44994.3608942502 837194.820681992
 -693390.725164686 -881783.845545203 -1277367.03886984
 638632.593558431 1574823.35489921 45604.9482931937
 1159290.99886498 513379.108966254 1132469.10352011
 1333783.01204177 596476.347171882 -869044.788289577
 943191.166827574 1410823.52528206 99836.8836109081
 232641.299089532 967704.514488164 -1378196.64728846
 395378.288193167 1573990.15111362 -506192.664331245
 1028665.80060321 -893289.521270034 1016799.14528805
 -1672175.81987648 300694.347898336 -58403.2239043724
 -1124868.19578171 -880684.589245084 921447.880449581
 -866056.983142984 -31095.6706356634 -1462524.65319973
 -349169.203205395 -1661857.88046935 -79430.8041935311
 1128094.08144531 1181768.97906567 -469921.082232054
 -1307344.71547194 -1006237.04804950 -410288.676495253
 -941218.854143435 1100099.13355412 -891004.469662410
 -508006.229197886 218458.526159726 1607546.43585940
 -312462.870413976 1605578.32578013 463125.462912285
 1391556.57581415 -709988.354383855 -670437.792004373
 352969.914338799 1289757.00346046 1049732.87630537
 1376074.20329414 995000.850720300 79956.8264394844
 1011596.86019207 468065.688409407 -1283583.38403992
 -523172.136456554 -211520.322150793 -1603605.33453612
 -1662006.62625431 -71831.1985941822 350106.059923688
 -1226740.16917743 -141007.477960230 1168428.62361628
 1304850.52764523 214402.793073013 1068361.61613307
 -1668103.59858236 124910.158396517 303031.082111969
 -121778.716057485 -1591948.02158808 583841.965669798
 -265845.355266327 -273461.146013823 1656666.90940096
 -947442.870212022 149555.448421765 -1403561.60375374
 176589.357710340 -37962.3386815095 -1690377.19447030
 -295724.112720779 1046100.76522527 -1306989.07346260
 579973.306423783 -1405140.01262413 761060.121645151
 -1697671.63529472 -85933.0519765823 -22946.2261329009
 -1327265.18039247 325138.918910588 -1011262.49031961
 1036546.78990643 -906113.505459332 -997260.782122150
 -586223.457293170 -1567290.30389292 -299905.254109484
 -335420.063460082 467677.145738559 1599616.03779853
 -504746.860809779 693615.706333867 -1467694.74293180
 1568390.28759476 406900.447738643 -514377.226759232
 189389.031118467 1537738.04393292 -699638.122984561
 479322.807220803 215323.646582840 1616751.48792269
 722754.324641554 1536138.10571850 -88915.1639008716
 433803.808917935 1250982.06555972 -1066235.49322662
 33413.2549692631 1690690.00117800 174501.788842085
 1055629.69897663 1150551.51370910 672218.084359687
 -1688821.34956461 -122265.644133368 -151438.309286077
 487894.306542498 1490282.13558686 656519.841279832
 436572.626447265 1642109.79524959 -53663.4156786675
 -862875.013231499 39207.9957274074 -1464209.49478269
 654635.452724632 -1126078.91368291 -1092427.89427712
 977828.702217613 1070086.45735163 -888124.992842819
 654010.686707691 1491095.23870468 488779.102237771
 -878018.688231614 -954746.909334603 1098881.94189915
 -277335.599993868 -937578.968700288 -1390694.30229182
 -533933.482616938 1611583.69220909 -87823.9098780634
 548872.737995751 1488438.83155045 610973.454593381
 793510.779814430 41950.7618708700 -1502857.53679341
 1131430.73580953 966751.765430714 821739.322475268
 858229.879268741 -440340.252184398 1399836.39638229
 609167.456662226 548332.882456829 1489377.74246840
 383187.159309366 -409464.718761689 -1604838.38595350
 491749.704565405 -1588151.58326296 -354903.897751470
 -1070058.31267936 -902298.370470810 -964796.796279669
 -12046.2104156691 -1624686.80449819 -500247.614791005
 1490041.10744430 672332.683044476 466632.897936254
 -1643190.08643649 -391441.493613389 -191572.171555647
 1190684.79810695 -717292.176293201 978652.974953617
 -1647187.79138076 418474.904411818 -40634.1519374748
 -280609.157267095 -820104.726678817 1462424.95128363
 -692619.738633955 -1549390.47174837 -98321.2271587562
 -791912.578325068 607180.324955867 1376301.75516746
 232598.424134262 1521883.71392867 720949.328572362
 1590591.15269801 -359574.146754951 -480339.690161303
 645733.607153428 1553419.40301618 -244777.995182334
 -948144.458710129 1403610.38651053 144568.213301022
 -370694.179778837 -1626570.02534282 -326888.020175653
 1232379.34752963 -632154.398331215 985708.861912552
 1205604.60744784 802036.440734627 -890648.683956960
 -387368.754985240 776752.310471009 -1461711.76907047
 845997.750089913 -997455.965457758 1085987.75491049
 39584.4260839088 1335729.27558052 -1050837.93972655
 -525208.561411836 457917.855336922 -1550634.45233986
 -1672051.35279714 302757.759725682 50813.5074084867
 662133.712806963 1016949.54151872 -1190542.97543992
 101144.538796945 475950.508117843 -1628877.18876959
 -184653.596771945 1583464.13042884 -590376.487374298
 630493.512542749 959377.879174667 -1253822.96022677
 -769562.436525376 -1474983.49024670 -349567.389481328
 -1680428.16966673 -232272.921638480 -110500.934222588
 777793.394207214 922470.743190584 1197532.94897678
 1133489.68234610 357508.105702785 -1215478.95677866
 -1077083.87123829 901759.866413725 -957454.686992460
 -1059084.12153920 105091.420158344 1325630.64875275
 995873.321965481 509292.764889019 1280178.58372539
 626567.839347868 217565.044651078 -1565272.56222069
 -1474187.47407610 -551779.856246401 -642113.916309124
 -135060.360801260 -1691012.30609558 110616.814153830
 -243319.466544468 -1620819.33543783 -451376.028463384
 342183.862475345 1665182.89892010 8724.52895670047
 279789.743807844 -877837.540389649 -1428677.34353933
 -1514357.83661599 -496128.855525134 592095.010446015
 -1158940.79850431 -425253.045256349 -1168766.90279217
 -24049.5195781371 -458387.332403356 1636857.56072427
 -7580.10988827620 -1092540.99799597 -1302419.55975486
 -477081.438993790 1622100.46447157 176588.175506546
 -1033149.61972376 -1190024.91321933 637528.484996530
 1344515.49660542 113292.043627716 1034138.76836647
 640036.579699754 -635398.452596699 -1441048.91765823
 -774944.131925131 997186.126792342 -1138016.44141361
 -213398.981334830 -1540662.20049633 -686163.871627670
 236529.482070920 150696.634836862 1676706.39300985
 1117323.58388664 1235647.17616648 338768.453257563
 1450597.16597589 275358.141144363 842582.788910532
 1627289.76775710 418760.670264456 258006.807647964
 -625407.636721559 1533758.69887306 -382687.263390824
 -30895.9881182778 -395431.918801672 -1653081.67841490
 -1243105.63722518 -791775.503397147 847218.936827531
 162109.192386545 -1196726.48080941 1196480.81466997
 1389510.83817668 473490.428244338 -857360.160580442
 -1327675.57096827 -830079.051592775 -662001.772173549
 528024.928446214 -1156909.92183661 1128161.82690932
 -456569.292448993 -1382465.83156113 877685.994965530
 887764.357865542 1191446.56910918 -826032.395164714
 -255374.539461514 -153218.619851865 1673710.81705458
 336003.404509903 -1635735.47545673 -318545.391569371
 788184.250122766 266712.570877642 -1482440.55273534
 -327631.850376887 748888.319701094 -1490578.29557319
 835488.586680444 221913.854060124 1463800.89592229
 -1134282.36228719 -1204291.80939214 391260.476454243
 -232337.190025805 536660.010750836 1596250.43868180
 -602930.830846189 1072014.72888736 1173566.71487550
 1689071.29639465 -188771.521884970 -37462.8912516601
 -75471.0907573796 -827132.951882196 1483292.01250817
 439964.507188972 -1438606.85671119 791733.253209385
 1229250.55210993 -1005366.46940584 606779.484105940
 -326809.221794881 274337.841131151 1645580.28715506
 1240914.21572404 -1117128.76069321 319617.335646942
 -1584655.15388543 -412684.932637770 -456682.810753925
 714520.348166912 1238731.74161762 919241.178562191
 1265386.72517536 -329247.575042343 -1086458.68309785
 495671.180533275 1323090.92992620 -945378.480787338
 -907208.127129915 -1340401.89511958 519900.157366085
 789659.560392935 489581.288356533 1423638.97838293
 34232.1083047378 1321246.32828790 -1069175.52476044
 1681723.04387575 -24419.1416309326 -247409.193885945
 1529355.81109377 -689683.398243324 -274604.466936091
 -1641042.30748016 -250265.910025092 366533.926587288
 -279773.858774162 -1664801.24376290 -200408.100415460
 -1079034.73478613 -930690.810763710 -927091.503512472
 238435.551073469 1682989.46481004 -26361.8914857497
 -1313067.39993035 -343818.958018193 1023544.10132023
 152184.561350198 -948415.012124532 1402622.12447383
 -1313405.21199546 -904390.458992433 -589104.953965427
 584013.365966587 -1584506.21434314 -195623.222242001
 -1311088.49189802 970015.931855118 -479704.136275487
 736460.180723392 835604.614826768 1284286.31149330
 -366793.611480547 1508645.70536513 -692423.701399950
 -1227591.80659996 -455933.883050175 1084039.96727770
 375811.881431954 -519357.727925284 1574494.51577923
 -1139857.54593361 670941.720919976 -1067970.96501129
 875484.345371782 1437228.94075798 -240624.464376802
 1358752.32302079 -760813.029379060 -681876.571684839
 -1304938.62299916 630667.684393022 888478.171970139
 295177.652005954 192929.032269526 -1663023.91512082
 1678950.18773644 239807.607135711 -116698.666057638
 -346517.861370130 1653548.59452451 -188950.833016145
 979594.942312869 -945260.102990302 -1018271.61734471
 -653279.130793968 -631017.846071376 1437025.69747674
 1392969.44852169 -774452.529841562 -591489.133042334
 -576208.548260981 1578480.85051697 -257646.877454784
 -1488630.89446414 366811.724803039 734457.091050186
 1354743.65020168 648457.276938016 -796349.673337256
 1212499.84902871 353650.488730663 1137882.00087967
 -417402.980258861 706473.985310244 1488848.29991201
 1323768.82175404 373496.213562898 999067.908105396
 -939002.975686852 -690362.295003543 1237607.89965509
 1521454.72893341 -408926.054091718 -638713.543062259
 484154.300868515 -1491372.99173178 656811.397954930
 1411510.16091879 -877457.089271994 -357362.731841648
 -893960.373493308 1260120.65298767 -709176.135059296
 1010171.51600841 -11012.0979798772 -1367271.82445312
 643960.970503470 -767986.638413711 1373139.02853507
 -843136.243451422 -831094.006433080 -1220001.65059300
 1509089.92094309 -754980.769580917 -206522.754366158
 1432168.37888493 1045.23187105164 -915910.826452245
 -746383.385491531 -1260953.74418931 861920.818217752
 1208327.48611603 1039154.15587195 591695.298807215
 -1549929.40595783 364446.661446785 -595732.714820578
 1139526.68355689 -317776.162476134 -1220859.22530969
 -1289002.24970119 -3302.14018629781 -1108360.18339503
 -548940.705322880 -768375.200028488 -1413599.53806614
 -850649.391808273 -1376811.30080155 520371.265733775
 182995.189292603 -1287309.30718010 -1095147.25418241
 1284876.29274271 -1105658.70606096 -128886.531722097
 504015.480400285 -1583310.77293628 359298.471776317
 764273.979889526 640454.510012059 1376845.41771001
 -432218.787927611 -167261.552795041 -1635607.07149333
 298632.316556283 -244801.272859581 1655563.67328912
 -1151302.99402082 900642.635300229 -867954.065281194
 -1641341.62299121 14495.2435701566 -442478.885993914
 1328538.66312201 -1041485.83920687 200729.338467306
 803703.212967576 -1497270.66497394 47346.6078414147
 1153894.20365942 -283060.065434003 -1215896.85669373
 1503627.50317426 631827.571796193 -479477.060156241
 -1496171.93602233 -745028.468700774 -310486.905818214
 1440882.61580053 765587.382487611 477214.047634372
 1364461.70259130 640871.849592959 -785829.201901367
 -412901.088652221 524868.233097818 -1563338.10446576
 -1466591.23428982 -491388.118572295 -705441.612346642
 1612001.63537837 184790.528692393 -507250.616601944
 -413844.474999632 -908787.853341074 1375804.26955727
 -576373.076221776 1523650.45286089 -486089.883152735
 362753.301719818 -1651898.13570282 172170.239451922
 491947.647126701 1463461.62865321 -711524.823141264
 -55892.2655432225 913145.403498944 -1432843.85985396
 710174.231975052 -1530875.56650628 205115.967473797
 -286931.137773242 1132681.55410551 1234788.65364291
 828931.397275149 -874338.306514322 1199335.34275162
 -459460.437128955 473884.191636487 -1566630.10300144
 -374010.489786118 -774270.668546583 1466499.60291791
 726449.977151889 312529.728295886 -1504857.33530701
 -852258.121610445 170258.487145409 -1461050.35563597
 1081805.78805034 -1310165.75290435 -56231.1022243158
 -521827.967669698 -1589375.83534123 302621.919548248
 -1295682.40171018 -771716.782726104 784640.249514004
 820262.426040621 1487499.45386499 67193.2078212137
 -1402715.76127171 -750242.083450625 599604.293930242
 1674854.17749732 217171.823091793 194164.578063981
 -869807.084368649 731478.611493641 1264268.43546355
 -1594791.45273410 -123514.556541727 575659.948761912
 119409.302588168 -1548785.27726632 -690655.908089185
 126724.613206699 -1512619.51646698 765456.119454812
 -1257408.09700529 1050759.34379924 452581.129748160
 47889.6221793610 1695814.95307526 -109170.641721454
 -972057.987460134 -1056575.51384167 -910357.870600988
 -1592140.11952153 -72118.0442594945 591514.012938128
 468213.564094732 -1425831.70686431 798611.295999573
 432675.298062827 1444918.69318749 -784220.668258374
 -1342568.29830609 952631.988218453 -424267.202840907
 131408.662648808 1098442.29926240 1290796.76114096
 127665.405294950 -1660837.64838152 339587.764811107
 -69140.3830830440 -1304284.34769624 -1088146.10589835
 276301.027117410 962338.246712578 1373886.03651396
 1004948.81603256 -12300.1308053036 -1371104.14773530
 -1203992.62322021 1050361.71342889 580639.332282996
 -1529112.31691661 602441.733229471 -434602.669477984
 211309.484434878 -447872.335005558 1626271.40211114
 -535686.040032487 -1603909.95989385 -174680.585834917
 274065.707089896 406074.808514669 1627879.36840759
 853701.850182332 1466875.42203173 97312.1124757755
 -350943.174834648 -962047.105309805 -1356946.66630712
 168105.630062042 -385206.960220280 -1647226.78916393
 -597680.037745558 -1122234.30078490 1128436.41673880
 -10489.7219592420 241759.319081015 1682689.03763313
 -341600.201190447 -964439.209560823 -1357632.61363608
 -795501.138574787 -1499693.56168007 -89984.2185139639
 883864.318294710 319979.512025829 -1416473.43029410
 1218613.96535265 -421061.644435844 -1108010.42189705
 1515385.91073403 -38744.8689153900 769483.188043453
 427026.644049130 -1634215.07488363 192326.114439050
 587908.614236280 -900633.812072026 -1316518.96980613
 -87438.4592791067 -485734.415395100 1626781.05273564
 426733.615887143 993409.265206597 1311882.78930458
 9489.79945122345 916139.513843210 -1431991.03868757
 600606.207646211 1293010.22846573 -925957.197941592
 619881.366422967 510451.053155228 -1498394.74568430
 -431388.674379445 1414014.73883852 -839324.805998594
 643967.037435744 677511.839185651 -1419959.21154782
 -445531.023190265 -1284225.73180861 -1020914.48081397
 945955.310301645 1408647.51464170 -104310.739647807
 1585551.85239617 -147459.279644543 595215.157913322
 -266541.439112569 -1032940.47819214 1323627.45126716