# OOMMF OVF 2.0
#
# Segment count: 1
#
# Begin: Segment
# Begin: Header
#
# Title: Oxs_TimeDriver::Magnetization
# Desc: Oxs vector field output
# Desc:  MIF source file: /home/martin/PhD/repos/ubermag/oommfc/docs/ipynb/thetaevolve/drive-0/thetaevolve.mif
# Desc:  Iteration: 1784, State id: 3577
# Desc:  Stage: 34, Stage iteration: 50
# Desc:  Stage simulation time: 1e-11 s
# Desc:  Total simulation time: 3.5e-10 s
# meshunit: m
# meshtype: rectangular
# xbase: 5.0000000000000003e-10
# ybase: 5.0000000000000003e-10
# zbase: 5.0000000000000003e-10
# xnodes: 100
# ynodes: 100
# znodes: 1
# xstepsize: 1.0000000000000001e-09
# ystepsize: 1.0000000000000001e-09
# zstepsize: 1.0000000000000001e-09
# xmin: 0
# ymin: 0
# zmin: 0
# xmax: 1.0000000000000001e-07
# ymax: 1.0000000000000001e-07
# zmax: 1.0000000000000001e-09
# valuedim: 3
# valuelabels: Magnetization_x Magnetization_y Magnetization_z
# valueunits: A/m A/m A/m
#
# End: Header
#
# Begin: Data Text
 156089.841591227 -1437284.41660972 894343.036604464
 264169.528008887 -411089.686348321 -1628256.65367890
 463335.323667978 932210.750907582 1343987.90684061
 -102357.468554900 -945097.084154283 -1409366.68406561
 -330770.950985105 721462.974483382 -1503356.82871167
 -587825.487204995 -950705.079634626 -1280867.30309940
 -390907.194875811 -708080.176561528 -1495263.86586278
 -944561.128520216 928810.342210438 -1065418.05066910
 -183954.621807917 -1640410.65056870 -406464.751997365
 -657070.841903676 1305689.02896700 -868005.799724412
 832786.744398139 -1161302.38626519 -920783.908422348
 -34564.9711984946 -1693983.98680757 -138648.891829598
 73916.2862581956 -1350157.68645046 1030344.89582108
 -1064431.49955561 -609099.256253894 1177278.08048258
 -1276406.10788405 -632166.263966988 -927983.438676746
 552022.775062462 546342.665302963 -1512210.48398759
 823121.778895643 -772569.723560407 -1271065.12789293
 -18019.5936000230 -1370343.77200042 -1005899.21999481
 211045.688610909 1574661.08658403 604898.487117262
 911517.992086862 792320.402282875 1196395.97551490
 -262275.990063314 1393308.83660109 938030.804870306
 -1694672.22662009 122278.968906793 -55981.2297614298
 -101540.577490775 436743.626855570 1639800.14499447
 84392.4156791975 922025.549386412 1425744.29911345
 -1455141.83173635 36481.8660975239 878197.769854272
 230557.428875577 43720.7909607257 1683725.56090001
 1336039.39053533 418645.968541186 -964227.307206243
 -806579.935702688 -279020.305289474 -1470230.07606225
 1058584.22909109 1163590.68515477 -644558.878102452
 1699849.20632320 20692.1233484050 9193.02962619696
 223721.224907271 -1191547.60936123 -1191705.96547619
 -148534.027423972 -1671653.17885539 271133.347856520
 -1438397.61405732 -788106.133334110 447102.926042039
 -182395.777792850 -654357.728974456 1558379.84547245
 -1071974.61063496 -541822.367930718 1203037.38751710
 1687276.51447436 -206662.801287565 -19709.1417173862
 746412.618049049 628038.211367141 -1392277.34617781
 -367983.162719558 1402147.74601975 888014.690355201
 197893.046378703 1404632.81851925 936933.822280760
 1410288.92458813 705510.338674053 -635090.789736469
 855551.114312698 -1355726.42205428 -565719.152355821
 -207700.890816039 925267.534638243 -1410935.97632872
 890066.016260807 292484.064149336 -1418532.88961388
 510033.838277983 -741471.141839382 1442250.33528539
 1058234.66129278 -1278723.52841187 367430.999678118
 -1198285.15012834 455063.309057666 1116705.01195767
 1602615.76455692 -541065.569261035 -169913.981042976
 -1035805.54044501 -475301.144108675 1261426.05997831
 110667.289112674 748106.486246870 -1522527.31875517
 748493.414766540 406361.337406827 1471267.50508263
 68306.0090328537 882854.907531372 1451172.45749007
 -1337248.35428563 -343744.261538021 991769.490163950
 -951754.895799536 1349599.49369899 -403415.201658333
 -657360.727869866 586230.267921308 1454032.64971159
 -1527503.71070192 -85246.1891664878 741259.401980485
 1454371.73294141 837991.588238905 269393.690464051
 1388664.14766659 413674.603543849 -889092.350303533
 -312748.674537943 -1309153.27902200 1038415.11863065
 261300.812359947 707169.702296468 -1523690.55178995
 486133.843531538 1462503.32753599 -717466.308002971
 1358131.78066252 1018899.60168484 85566.7461163086
 475651.669315985 -1572724.52813093 436225.914054006
 -1321898.05876449 686357.142239635 -819450.666929561
 770671.619965048 -1143523.42763211 994192.850827726
 -1429925.50807362 -777732.374460271 490352.317295222
 1306829.87413857 277587.027744416 1051256.92486994
 -1071361.14120000 -772773.770932347 -1070049.53347293
 123240.380945580 575473.570964599 -1594879.92577048
 -1356275.86303104 677518.756951793 -769080.046118682
 61807.6501612577 1438876.40723938 903224.500925119
 -639353.059282934 1541551.54318919 323800.100797661
 123728.109193715 -1230118.79305141 -1166832.94004630
 489532.080761532 1573484.11280089 -417739.259189834
 1195493.97922561 1193028.09169987 -193592.660114683
 1610630.93200950 -342448.507040569 -422607.407507132
 1192203.24183544 -505674.591459680 -1101337.65835422
 137052.649091381 -1694353.82476161 -19536.8342557463
 794088.319890886 -370045.576809554 -1456876.80031517
 -479630.683800960 1630414.11264872 41282.3016863811
 1649965.59174595 405371.587486450 -57336.0454962214
 711078.568659349 -1101716.06218355 1081937.60796089
 -1092163.28668002 -1283646.15452057 222332.870293240
 32189.7679229405 -492485.902766252 -1626782.54675220
 -1524430.83081711 -304806.827794568 -687897.841095667
 900787.977891099 -503052.475977826 1351117.76884898
 417074.927626021 -1293146.46682613 1021675.44752765
 178109.341256565 614028.574724473 -1575197.12162605
 885129.355894039 1429244.99847928 -252596.036502089
 760066.169597070 1385422.70802100 -626820.020367736
 -418726.622716215 1371289.56067948 913363.539999346
 82672.4795274376 1467001.63224322 -855027.176249095
 809340.035135533 1493742.20947645 60851.6158800490
 -1072187.31939881 -208429.039561269 -1302678.65860617
 -995114.604357271 1065450.48265473 -874392.470922335
 841104.110165832 -804637.747813299 1238992.32066066
 1087606.68891033 -510848.265818847 -1202557.99841313
 1327353.74249969 -716416.760659451 784142.249415419
 1107563.38941561 -122391.460359967 1283870.58103890
 -445008.155312434 -594361.160037547 1529281.71150519
 1557683.01401599 335185.016308381 -592684.260537100
 238398.889211682 -1437196.72485939 876145.846121576
 -1555721.35086459 600345.572996711 -330630.112735229
 1296124.93901843 -482335.950443688 -988641.579827627
 -1529924.72280204 -331546.987390373 -662877.769812410
 -407905.419286964 -158983.550147110 -1642661.68144842
 -1112370.75048978 535179.518190301 -1168851.65729634
 735021.825768407 -969840.311902368 1187077.37113180
 -987248.732297026 -1224475.17428712 -644980.998272391
 -954029.924429060 1402540.12979808 112730.153906906
 896539.687440466 261872.264561288 1420436.37868709
 440074.151386342 -791157.369971588 -1438890.11297640
 888718.135570063 1317739.71414802 603110.372374709
 -204671.177752287 -191911.462345372 1676687.12037099
 -1673061.58144562 295896.790873988 -57532.8935579180
 505148.759253601 878171.261612943 -1365151.99384599
 -1408918.01815666 632587.720351349 710480.678255360
 391591.967078202 -1626770.10575718 -300457.574932975
 -976476.607696293 -1304484.97985778 484574.423538196
 706678.586974031 -692744.129147361 1382284.68350201
 -1518171.75200529 157705.211483341 748520.940043885
 711720.361644321 184466.504921271 -1532783.81886782
 -1538917.56416639 -436437.758147284 575547.403750171
 227902.718588686 488201.748429429 1612364.53809005
 1002145.10440425 849595.837457474 -1078838.31165450
 -790986.396877712 -1405113.71634786 538512.733447894
 1685181.96974019 -220357.434492291 40054.0875134143
 -648337.756179898 158591.158531763 1563491.92461847
 948112.713390042 -701861.569195525 1224121.16246496
 280080.718200185 -1619574.52842649 -434204.028268472
 -1641616.98301983 -425248.498494113 -119404.336560121
 -764361.876855005 1506979.11190213 186453.419119537
 1198502.74241027 -447807.779043251 -1119401.34422977
 -986148.806836381 707953.653911546 1190089.13728698
 -117639.631671853 322025.273722720 -1665070.76130233
 1486057.04079271 -540585.399805889 -624020.750477990
 1516129.89287149 39330.0926867037 767986.517948544
 -301047.380621596 -819769.131832047 -1458543.46699583
 -1329705.44359656 -256683.353736998 -1027617.19000024
 596574.940495697 -1102520.11405593 -1148280.33967088
 217563.485033122 1306028.68129008 -1066281.02000736
 483871.820836734 -1405984.81618998 -824059.923575569
 364427.363838366 255296.456444032 -1640736.54674141
 240964.514794266 1658122.25611846 287344.194955420
 -1588105.15180076 164374.799014841 -583868.951283334
 -1424067.42972111 435847.487760102 819798.098937007
 -97457.3413279428 -1095949.17602666 1295915.68791638
 421641.866124295 -766418.028711874 1457676.76183598
 -1101170.45060103 1290614.15292261 108345.498286633
 -555421.354732731 -747902.028145980 1422023.09228858
 -1093675.69102452 1231611.28883637 -420722.136418853
 898341.515077853 991409.173046569 -1048851.93134529
 1653327.26610355 395354.676010061 -14269.9444823368
 -1537454.38193995 -724983.941634737 25145.7317534599
 -1329461.25402580 -410747.601852560 -976636.668171192
 1294465.71517501 -715039.549783514 838496.842261098
 181753.937367426 1658900.62192083 -324058.995928411
 -1018141.03470855 10146.8646835293 -1361354.42651049
 -1552486.83662517 -597138.028407011 -351013.955756426
 1264818.93723228 1087024.58000681 -329561.251483864
 96665.0367812789 -563979.324925724 -1600807.04387518
 -738849.321156662 1033040.06775105 -1130013.22958948
 488922.528741416 200514.958470676 1615781.08428048
 -127272.369821240 -1355290.97319620 1018326.13727282
 692531.011384284 -389306.169229263 -1502944.27869802
 -1667630.23363178 70720.5035366696 -322502.735270141
 955828.827397867 -1311985.18898459 -505060.507860474
 -250901.842110905 -657760.843242496 -1547384.54778451
 261981.025157961 -462577.523584178 1614740.83899922
 -1485290.21278638 -817017.757307378 -128042.836759418
 947080.426121081 -1248554.90579293 -658900.078675608
 -137623.522213838 547246.919363020 -1603614.84633348
 -1415369.98715118 -659500.356693092 672151.083457703
 -701162.872221347 -1426426.18190358 -603058.018932075
 1682200.74973632 220065.808682666 108497.361421360
 -25703.6697193293 1176051.63790374 -1227290.45720518
 -205424.080522787 1485410.77182789 -800846.918005582
 714951.990723788 2935.68292304385 -1542347.24777719
 -1062529.29895187 -371990.066702693 -1273834.71421664
 -1082835.55308483 -788894.943773024 1046475.95895215
 -497799.372815792 -564161.148022283 -1524440.21971555
 699220.532196900 -1477479.17218330 467060.962957541
 -1205882.84507076 -523257.570657527 1077983.33879222
 1185739.88369612 -1083950.40802574 -555942.839825429
 1388858.17482252 -207382.862375420 958157.251510227
 1497472.15899827 -804111.038060907 -31345.9964537545
 87930.6176547517 1471671.63603650 846434.168830921
 -985253.747947443 -1042384.15894480 912529.625456868
 924584.824943863 687856.241435589 1249798.66082567
 -533445.147787039 -1613994.95594672 -21367.1823364042
 1516488.60377645 757826.759169646 126336.525607538
 1481481.73423133 542611.357560334 -633075.655656928
 234547.820172629 483785.449801018 -1612742.68208326
 -1193896.53712966 -53600.4780857229 -1209023.59256500
 71860.7157218589 1261213.46334088 -1137618.84540634
 -532638.417063331 1510426.98093267 -570005.835004249
 1342035.63514850 717574.713076646 757645.619761991
 1536704.31699634 -712787.262169804 -143087.948525682
 1335551.88294185 -757211.787424143 -730021.559240836
 628744.456330138 885314.537927593 1308013.21765805
 -689972.821345338 138936.405468089 -1547460.55879960
 1034929.48445404 -245799.490651175 1326085.80891408
 546228.894160926 82226.2072362061 1607753.97559057
 24774.9958005378 993796.787322642 -1379041.02371549
 -253374.939031068 1615895.75942331 463337.927379959
 -543506.650354571 -1286865.64977477 -968802.002707532
 331156.946097045 1662385.12877470 -129656.317549154
 -243263.905028757 -1629136.24164226 420401.925159601
 1108496.06307535 1228706.67936253 -389251.042691399
 124488.219370144 61861.9290360873 -1694306.87449883
 -720425.676437288 -1360571.24938581 -720994.258003915
 -592037.540136287 -1202441.92776465 1045765.25158518
 1520531.09400421 621952.182247756 437219.252965404
 -1038402.75896835 1193621.31005866 622083.497884954
 288249.030744467 -1630114.02717703 -386834.272881239
 428728.906739113 1062545.63844337 -1255861.57308489
 1530765.06422198 -579880.175138956 458799.848123660
 1308941.23725637 140483.011624231 -1075610.22719885
 -5412.71423145761 1582337.64451193 -621432.443058049
 -1338621.49537454 923104.370358670 495954.447047247
 1435624.23321699 -630086.792741964 657247.057515103
 1133872.68811381 985123.502792630 796156.022017761
 -1080286.62842744 -1217123.15421777 -491520.119535159
 1437020.70199933 859050.032689193 294965.325694482
 -714907.287318232 1013668.66450838 -1162490.17592971
 -1536911.24218797 469987.952730493 -554089.485484470
 1160905.82430699 894700.277084847 861283.391964814
 -612174.664009248 -139738.195726842 -1579783.34508254
 591863.869022750 -1219944.30222073 1025394.09985849
 -1546959.41088418 631061.411569588 -314130.666928082
 1645124.69427306 -172827.087971916 -392040.224921017
 1194997.41681602 649561.600487625 -1019828.85866944
 1191256.38421435 -1188811.84402098 -240072.127878231
 -943981.850870560 -1405586.56590938 -152396.426999061
 -762566.429605593 578178.773385483 1405062.89768289
 799285.319255986 -1411464.88615421 508831.851966391
 -1506001.46630105 782281.024282443 99979.9107156365
 1201358.88659181 1184260.94638447 -210387.348658206
 -272387.208522158 -628519.591624788 -1555881.85013429
 -1236277.28415585 -190680.570717902 -1151199.11250441
 -1194934.15440320 -926559.000107451 776930.361075294
 -811207.473393005 967800.147686481 -1138114.80495131
 351195.950178678 -913299.756167104 1390160.04832652
 1238365.69332688 773657.513655524 870577.085131112
 325746.186000805 739686.980099728 1495577.67895114
 1488551.16797195 -348780.603313057 743348.848846846
 -339536.810573742 1436622.24822518 -843108.101117432
 -1042350.14573436 -81914.1963098207 1340446.28319470
 1104368.67500393 1113588.47235812 655965.352668251
 -1174623.47098393 962831.486609129 -763685.295005556
 -3574.40772251262 1054521.06349564 -1333406.37101128
 -260583.406821477 77323.4767232714 -1678129.12734293
 153832.276268039 930898.160867097 1414130.20789192
 239671.811262897 832063.307506612 -1462951.83624996
 -868549.404355725 -1406117.04315805 -398066.317507237
 -203671.111837867 -1539742.43265607 691166.636406235
 -347879.810880475 26625.0910122014 1663812.11130054
 695854.917753286 -1305618.70295883 -837344.454763194
 744829.535836643 937348.452271064 1206899.68165147
 1218129.16388296 156866.600148186 -1175395.34194064
 300918.089799802 -1669538.52677162 -109951.856994235
 -1457959.18165712 607190.717592197 -629026.594900072
 -912313.645442457 493633.117059172 1346851.94363818
 -428529.599785672 -426173.382338763 1588942.61390821
 991993.503718545 1245940.94119061 -594625.982988692
 428645.663419228 -12905.7720076876 1645021.68261722
 -1647594.23978429 81323.1240398275 -410876.831332751
 615050.207096391 1584759.55753808 -15823.6387219684
 802818.940752552 -1491737.85849303 -142126.387091099
 707629.660219689 -1116589.48702951 -1068872.38781462
 -618017.041024753 1578302.44965788 130446.595996025
 -865586.320412600 -726961.606407391 -1269758.69547098
 -312189.093579821 -1615236.15403785 428427.516085079
 -597673.989462482 1399559.22480434 -757640.929850728
 307947.342793902 495368.776898749 -1596802.49528237
 564883.854910541 -485876.589480670 1528015.10799339
 -862431.323559786 -1375878.96643278 503159.300689921
 -1333917.37466149 1052275.39078616 -58145.8469886150
 894659.231732439 380514.166221767 1394558.65003250
 -125552.587802172 -1132476.67424708 1261639.06486065
 -244835.835160906 -1561690.61043597 -625442.124498500
 1402645.15221022 -912831.736482926 298872.544491349
 -1583036.93714068 146612.822248773 602078.679244260
 180552.721421675 -671902.087094749 -1551111.95603185
 775918.496826136 1395917.46024394 -582550.367323875
 873011.308588243 -1448976.99059092 -168276.367369688
 -1113483.13341792 499547.180373605 1183472.82443434
 1479694.55076953 -37938.8452032821 836100.879348666
 486390.711224336 -998691.696764484 1286871.77715900
 1432019.44065856 291037.366014283 868687.270057197
 643828.928590366 -155184.374950910 1565695.41114524
 188360.064595762 -218433.559342642 -1675352.87811804
 -885923.469989659 1449231.59168104 -69766.7470584270
 -235497.744929070 -1675859.79596861 161352.893960290
 -1668694.66530660 83785.3917102210 313748.501372112
 -962983.901662622 -188487.289298871 1388212.71673739
 -178340.427882292 1594119.38938516 -563008.049826164
 -990048.543900077 -1262629.98426498 -561755.643991553
 820654.748148824 -253160.319528418 -1467118.14008179
 -1385187.71784870 -927483.701658747 -333210.098104021
 641933.635278952 1498892.57135765 -480876.561527376
 1667709.20144515 325007.733505623 55821.0764559598
 -763940.355604045 1512622.68361849 -135527.672754872
 -32828.0322116741 -693767.762466095 -1551647.06427199
 1102309.77620613 467037.991041360 1206975.00893947
 -1040684.91316211 938936.027251899 961963.641852016
 -253057.960564152 -1553329.35428812 -642751.573861914
 1134463.18614210 950918.056982635 -835911.555245340
 -1443813.56051567 657237.910266033 -611097.972325393
 -1196712.55007791 375923.016713973 -1147414.90228718
 223518.397506005 -1449668.22358424 -859361.139164701
 -737044.453643827 244204.588314866 1512325.88829222
 1047.39323533939 1579403.92198523 -628873.718790266
 952323.492741595 -1126592.66899948 844907.641892930
 989631.044150521 1276031.48357597 531388.793047490
 20130.7508395463 1537634.83927269 -724757.789834284
 -886902.709456202 661807.158268374 -1290509.53860248
 -601837.147332182 1278822.69205441 -944671.673322410
 -48894.2959087245 548166.706895109 1608453.48371638
 283534.474984090 -49112.4368032554 1675468.94034081
 -1219824.59480278 -611089.994692871 -1014197.70079630
 202250.336758921 1594116.55996872 554875.837025168
 -315145.811693458 1574406.53574643 558504.411415881
 -111696.003940786 832210.128624533 -1478157.74006646
 438058.089196571 1144056.40526220 -1178660.27848060
 -1497666.42509445 -738163.126695349 -319547.300930787
 -1636344.37064693 114365.548314975 446427.622365288
 79829.8679585645 1533788.57115814 728779.672580396
 -710062.004893905 -1506763.83753433 339815.666361718
 497225.704992665 1259340.67444423 1028021.23712737
 374178.374875063 -775475.041853582 -1465820.24929322
 -466038.009213310 -1615028.57948582 253951.297323907
 -747800.262586563 1494773.80194451 -310557.640858871
 78312.1471272796 -506939.398849423 1620765.14446310
 -1470277.35823625 -57720.7847208324 -851441.601561174
 266125.195810990 -91538.0034771250 1676543.51988667
 1374346.81838181 -416953.793985348 -909571.523567561
 913972.343861963 -1433315.54336947 16158.8301229311
 -1531001.76517884 -265950.104675124 689423.046352945
 -909584.480275553 1277907.47187890 -655445.319273791
 334565.058927585 -867688.785913183 1423089.03170016
 -1455793.34496767 -834150.628026447 -273602.753112815
 958932.404347601 -1310847.55033693 -502122.837229883
 589940.742736993 1100867.67829049 -1153282.39167787
 -902183.277058007 -1428399.90451991 189047.738321273
 1070409.31872034 -467114.777796081 1235324.92679504
 -464580.163194783 1621125.38987226 214750.418573351
 -1592029.71188454 -589738.949128210 -87460.6674911087
 -402581.438246526 -1013739.63739986 1303940.23373150
 -1019528.11534411 -1313209.81346562 355024.517238556
 720353.942084506 -1492941.34001149 377115.835530673
 -1475029.86093498 550568.154791268 -641218.852093310
 1667116.29498741 -307826.362600626 -126357.387894478
 -1675488.85702517 -75558.1792545176 277539.279260137
 1274598.79738626 1109306.14361180 186648.829213079
 1487982.37284735 -622855.426293942 536618.650469564
 -348954.941135702 1030099.55873295 1306570.07012833
 -1010726.39754650 -441781.785830282 1293545.90293939
 -719052.511961000 1518079.73918969 261528.947736832
 -1442326.96050047 -283097.159946223 854136.369114358
 1464982.25491481 -643293.272853598 -574456.924308542
 -765929.886784304 328867.344862392 1481619.95059926
 269697.953084510 -1028697.83734422 -1326289.47577267
 369647.371276535 915274.089612445 1384064.36331280
 494328.227068209 668107.576032809 1482994.22479360
 562270.894381644 305910.124298515 1574887.43635313
 -841791.957749477 -1111161.18143182 972988.760853564
 1048716.61697529 -529945.118087030 -1228556.72603898
 387384.986813521 -937330.395223124 1364311.03571816
 -38209.9729818655 483247.923777450 -1629420.58478758
 -407820.349398561 1240746.79920433 1088223.29642433
 1629557.74346603 -287013.593333582 390083.014179840
 137059.590402471 893780.284016925 -1439573.36477907
 -937867.644635018 1160997.23169983 -813934.708150539
 -1349331.24794751 86690.9137993657 1030431.88458871
 -446600.044010695 1575132.39592106 -457718.620999430
 -1541590.03737150 561941.042532318 -444659.894070304
 -40795.8581448488 -1167728.95842328 -1234805.56267693
 -1509387.94067541 -349558.862675196 -699683.246954559
 -1398408.04084504 842813.016787186 473414.374553647
 1538546.67338152 710541.497536210 134182.391190749
 88962.2151435686 385040.494988931 -1653429.63004037
 -1616289.93828278 -272775.001403506 -450777.810029700
 772492.438841811 -279151.136385920 -1488398.49334333
 -17719.3234952820 1512970.49585848 774987.938123301
 1181442.77398341 -260607.920123230 1194268.17916724
 -8537.96099913954 1166763.25888473 1236361.84061895
 -1388284.31799057 939887.705590672 281563.053863537
 -1154064.96910283 1247898.76437977 -29710.6201403833
 1378670.51321955 -943554.027872449 -314600.401246741
 425235.369766735 -766269.052763997 -1456710.89069709
 675393.612784983 1316119.85860229 -837658.633096993
 -1077308.56266945 -804079.044754956 -1040607.10673387
 103529.594535449 896095.862346191 1440935.05354730
 1215001.60653800 -288550.793454247 1153477.15005847
 -1668437.72487514 -321501.559370402 54335.1224888017
 -905553.157082343 1438642.17823027 -16797.6996958394
 -305535.596002845 100285.389006641 1669308.49165964
 23597.3305457853 -482812.917408933 -1629826.63273558
 -366627.003306367 1556629.87803221 -576617.779177874
 1688270.34363451 -146948.161470342 -134720.023176612
 -1036280.16964893 996904.112488466 -906810.675111383
 1621102.80329325 12752.0093502183 511725.597769247
 951347.909376128 -1016229.63557522 975814.779097104
 1661870.27759338 -354146.932601581 -52603.5225112083
 181389.266916963 -1613585.00831280 -503429.592689477
 -43541.4947354908 -978882.849401936 1389205.71024703
 -1281707.27775299 948354.154224106 -589788.820105036
 -974629.531966794 -1369873.64173307 252078.323350434
 1178113.46927001 1222910.89260463 -80855.4405932129
 9934.26584537834 486870.083987911 -1628759.90608798
 897103.805156931 1294017.11133726 -640877.896591336
 -662263.865245936 1564491.69368180 61419.1597969239
 1086753.38308949 -533341.164589850 -1193530.17829357
 570199.940248549 620163.424874174 1476573.51817947
 -836757.330880806 1469779.67004369 172002.589351099
 649935.176153722 -555647.893726078 1469299.04546209
 747799.483892983 -1506915.64856382 -244951.342112814
 -619102.429532247 -1529348.65244248 409639.940703581
 328940.917335437 1598123.94983790 477281.587594814
 1370017.30432789 723089.013276641 700139.175250717
 -51231.2275562136 1676589.29550644 276448.359583330
 -698763.176933480 225134.831362127 1533311.55681726
 -927038.773272006 1416451.53901400 155769.542835588
 -985398.879073307 700203.018533189 1195284.39375660
 853322.184320776 1047436.20594061 -1031852.04570750
 1205241.98246420 -848947.398525623 -846569.594447103
 1548503.84461597 679530.805941418 -174280.598421564
 -1383923.07184050 913865.411833178 -373640.121350122
 -1127210.95236642 1220994.05608404 -358565.173814531
 -41693.5785558801 229415.212139178 1683932.98736807
 257047.803232252 -1255082.21030892 -1117450.25491945
 -1521648.75554373 -507129.073337082 -563387.227161296
 -1370793.18055743 925195.167614796 393624.132846900
 310444.264858790 1375364.58455835 -949735.025130126
 1172753.37573495 -1216852.31686631 184173.718644613
 842221.549520688 -1024262.05054344 -1063743.44338262
 370783.418166937 957524.702444838 -1354867.55847956
 -594758.191825415 -1526356.85248808 454419.907265571
 -1420545.48185412 -693573.183078125 -625305.344370832
 1221570.19702469 801042.785324079 869538.216423690
 394300.175423336 1653629.29824520 6125.00173076690
 799712.172148877 929224.749444912 -1177710.40868966
 848319.457344086 -1467102.91130123 134026.661313630
 -545269.872183519 1025855.97458633 1241088.34733652
 -544345.481667730 1291789.44764755 961752.577087451
 1533458.57500426 721963.401430767 131429.242333705
 1310646.76516331 691697.710150881 -832922.166074947
 -32108.5712728574 1666110.72404937 -336220.307028754
 1520034.56413759 -18596.9955914388 -761018.446282353
 -873632.891534883 -297613.107342184 -1427652.62202208
 -510077.456634916 -412551.054475810 -1568318.40379553
 -195515.184585611 -279659.275489523 -1665402.20434258
 940060.563668644 -388199.113134583 -1362199.53942017
 883648.867779666 1437793.99818619 204726.884535219
 775540.403239084 -452342.115182328 -1443580.16534453
 1043478.01046229 753786.974311280 -1110386.79703980
 -1046134.55265867 323726.412006042 1300309.08168148
 -130488.378419603 -1638965.63199375 432162.516006131
 129858.656962963 -289762.981264211 -1670082.07699522
 24206.0179507752 515617.758774856 -1619738.37255619
 -1208788.67681316 1060452.77093050 551606.612935453
 -482839.643319538 -783076.108951943 -1429565.55863232
 1033179.57693407 66441.6475678769 1348378.83003064
 976338.898843743 1276295.73045768 554825.705082319
 888048.768009840 222292.990788204 -1432464.73320729
 -1594162.64992333 -371264.101600183 459138.772543155
 1293878.26595918 895448.082223176 643468.542293479
 1259872.16260062 -1041119.03108511 -467753.457514143
 1088634.37961751 595155.046492071 1162181.42221850
 -1594141.04319549 370543.527716268 -459795.420232934
 -1519779.23099215 -761751.221653671 -2483.01310091335
 1628979.90952029 19186.9594460527 -485856.269864341
 -41652.6866852792 597464.405725877 1591006.39143359
 1394192.92775518 -946397.297768904 -224851.584324316
 -734763.152137921 -1298475.67014936 814913.519516349
 -920421.773112967 -1424090.05265834 -121619.412509465
 -983018.560729521 -1041948.77423044 915432.827213964
 -1085419.57106089 -1210426.30684897 496721.763612130
 -298985.451246489 632044.305831039 -1549557.25786739
 1458167.44522474 696388.385733197 -528006.551003544
 -169466.399914563 908949.369823231 -1426566.57131658
 1219396.39664989 -539893.765475757 1054318.33420352
 1630350.28635667 -209772.766844682 433535.846346143
 -39428.5622520527 1295779.89032359 1099727.17721794
 1333545.25781059 -781744.149136001 -707483.661056926
 191901.174055670 1217673.00387715 1170660.66604497
 -188718.154196961 -1053711.78481125 1320635.04906783
 272096.611216835 1074620.12593073 -1288858.02907417
 449752.316424263 1624617.95981633 -219862.089759118
 684762.813932641 1467209.88697169 518068.563249651
 862577.737387199 752537.170789549 1256840.26572355
 187402.243965964 -421371.517199620 1636253.78332623
 -1378786.66516634 -982636.563603326 152881.378294850
 -5933.92802433585 -1672753.08639554 303087.281904733
 -1644937.06085554 372731.614345345 -212728.017645622
 -1186277.08469724 -1217613.87834152 12771.9063703888
 1325659.99065344 -1064151.97405250 14358.4574687161
 -682381.246525018 1233955.74676388 949583.618971685
 1253671.90024119 -699382.343445137 -910588.328622124
 1621119.38463217 194332.590533685 473504.788810298
 -141374.198390603 -994359.001547980 -1371591.59813332
 -299323.633549958 -1549223.94873702 -632700.971279582
 -1432609.86387202 -649657.627440807 -644650.250170262
 428883.861172238 841387.405896948 -1413550.80093501
 -290492.582509087 1595660.09608029 509394.657691118
 1681354.14858270 209716.703997019 -138083.782930428
 -784619.246958855 1427538.35839873 -486319.722612587
 -463148.644029347 765377.465361242 1445576.24117546
 -113978.389152891 -462475.816456957 -1631908.40613025
 -1268821.22325839 463465.661701320 1032129.97429240
 -954296.892669411 1354514.11394162 380274.842415935
 -812660.710720403 -1113893.27535685 -994396.470411168
 273277.327804690 1024102.76333079 -1329109.86462601
 -709612.579787715 1139827.34592541 1042709.74297148
 -1246712.28411960 402937.898044731 1083212.59729778
 688850.179519220 912869.399714344 -1257837.38584982
 -1354341.62613936 -879304.699960062 531584.428227854
 1672689.92059770 193929.443185679 -233451.923522945
 -395226.756111569 1275517.27815940 -1052070.09479900
 -468840.012671944 -664986.327751670 1492642.69884695
 1078688.74222811 1313827.13711590 -16995.6220295066
 1221022.04593407 -677697.977027806 969448.614045842
 1437848.34483867 695848.914464831 -581709.915235080
 -491952.813366515 1417935.89126346 798398.545644758
 -774263.127503419 1156674.51232160 -976022.890066729
 903964.082551581 -1438769.77131810 52825.0186744252
 847082.181307320 702048.337641324 -1295986.07620865
 486656.857377107 1618393.42752163 -184303.599863429
 1136999.35075393 266880.423693043 -1235316.68645516
 141935.554397209 384767.262104943 1649790.42681494
 11461.7976879455 -48986.0301686982 1699255.42401432
 -1613172.50846851 -497924.811515611 -199362.333449850
 -1324012.17884391 -126685.000312941 1058745.79619884
 -697411.015901925 -431657.365647104 1489056.67910300
 -442623.426966734 -953412.192028233 1336072.48830000
 1173704.80245088 792621.059888772 -940302.553503150
 887246.369431213 245652.449124682 -1429142.66403679
 -846562.166762404 1100707.43252539 980701.608946321
 -1258877.96998241 546001.326676665 -1003548.10943984
 -1308962.88358081 416898.284250358 -1001405.00797475
 451869.176213766 863803.627561236 1392715.88653248
 -459143.075366229 1349416.98434933 -926424.005891907