# ODT 1.0
# Table Start
# Title: mmArchive Data Table, Tue Jun 08 16:48:46 CEST 2021
# Columns: {UHH_ThetaEvolve:evolver:Total energy} {UHH_ThetaEvolve:evolver:Energy calc count} {UHH_ThetaEvolve:evolver:Max dm/dt} UHH_ThetaEvolve:evolver:dE/dt {UHH_ThetaEvolve:evolver:Delta E} UHH_ThetaEvolve:evolver:Temperature Oxs_TimeDriver::Iteration {Oxs_TimeDriver::Stage iteration} Oxs_TimeDriver::Stage Oxs_TimeDriver::mx   Oxs_TimeDriver::my   Oxs_TimeDriver::mz   {Oxs_TimeDriver::Last time step} {Oxs_TimeDriver::Simulation time}
# Units:                     J                                        {}                                    deg/ns                             J/s                              J                                  K                             {}                            {}                          {}                   {}                   {}                   {}                          s                                 s                
                     0                                        51                                      68871.265080800003               0                               0                                  60                             50                            50                          0                     0.84237179844700005 -0.0023607584264700001  0.00340823715144           2.0000000000000001e-13              9.9999999999999994e-12       
                     0                                        102                                     69924.226299500006               0                               0                                  60                             101                           50                          1                     0.71094526883300002 -0.0010038296639200001 -0.0014038455451499999        2.0000000000000001e-13              1.9999999999999999e-11       
                     0                                        153                                     78886.820643500003               0                               0                                  60                             152                           50                          2                     0.60085460396299994 -0.0021751550491100002 -0.00586908817711           2.0000000000000001e-13              3e-11                     
                     0                                        204                                     67798.361452500001               0                               0                                  60                             203                           50                          3                     0.50290234619100005 -0.0034257136830699998 -0.0026234849016900002        2.0000000000000001e-13              3.9999999999999998e-11       
                     0                                        255                                     75905.774116600005               0                               0                                  60                             254                           50                          4                     0.425939974108      -0.00364532803084    -0.0071407427141999998        2.0000000000000001e-13              5.0000000000000002e-11       
                     0                                        306                                     71436.600415199995               0                               0                                  60                             305                           50                          5                     0.36558523218       -0.0065296839840400002 -0.0042582661419899998        2.0000000000000001e-13              6e-11                     
                     0                                        357                                     75558.791580300007               0                               0                                  60                             356                           50                          6                     0.308660161717      -0.0082658655300900004 -0.0090746221121800006        2.0000000000000001e-13              7.0000000000000004e-11       
                     0                                        408                                     74337.208698699993               0                               0                                  60                             407                           50                          7                     0.26343941781300001 -0.0089549082457400005 -0.0079263820593100005        2.0000000000000001e-13              7.9999999999999995e-11       
                     0                                        459                                     66925.240612499998               0                               0                                  60                             458                           50                          8                     0.220889321586      -0.0077287342816699999 -0.0044651331990699997        2.0000000000000001e-13              8.9999999999999999e-11       
                     0                                        510                                     80793.804346599994               0                               0                                  60                             509                           50                          9                     0.18524623385700001 -0.0055765098789300003 -0.0049893943812200003        2.0000000000000001e-13              1e-10                     
                     0                                        561                                     68679.136882799998               0                               0                                  60                             560                           50                          10                    0.156378107154      -0.00240404545158    -0.00377116628428           2.0000000000000001e-13              1.0999999999999999e-10       
                     0                                        612                                     79485.231444100005               0                               0                                  60                             611                           50                          11                    0.13077536341599999 -0.00085401701170599999  0.000373393575633          2.0000000000000001e-13              1.2e-10                   
                     0                                        663                                     73848.682715799994               0                               0                                  60                             662                           50                          12                    0.10906171484299999 -0.00168548119435     0.00152916743046           2.0000000000000001e-13              1.2999999999999999e-10       
                     0                                        714                                     77324.061248600003               0                               0                                  60                             713                           50                          13                    0.094960170151299997 -0.0024164593380099999  0.00038128540608599998        2.0000000000000001e-13              1.4000000000000001e-10       
                     0                                        765                                     74215.6041902                    0                               0                                  60                             764                           50                          14                    0.082287975210900005 -0.0033785938827999998  0.0097225967824500006        2.0000000000000001e-13              1.5e-10                   
                     0                                        816                                     73094.122232199996               0                               0                                  60                             815                           50                          15                    0.071987591828400005 -0.0069988718036800004  0.0093399378146100005        2.0000000000000001e-13              1.5999999999999999e-10       
                     0                                        867                                     71269.363282899998               0                               0                                  60                             866                           50                          16                    0.060116520522500001 -0.00284676232296     0.0070082220165899999        2.0000000000000001e-13              1.7000000000000001e-10       
                     0                                        918                                     75740.023836799999               0                               0                                  60                             917                           50                          17                    0.054984514151800001  0.00299202807193     0.0028017152238999999        2.0000000000000001e-13              1.8e-10                   
                     0                                        969                                     76211.897359399998               0                               0                                  60                             968                           50                          18                    0.039759254835999999 -1.30784483481e-05    0.0034169580328            2.0000000000000001e-13              1.8999999999999999e-10       
                     0                                        1020                                    72510.595132400005               0                               0                                  60                             1019                          50                          19                    0.031737417368899998 -0.0044077691168099998  0.0022405837246500001        2.0000000000000001e-13              2.0000000000000001e-10       
                     0                                        1071                                    70766.592757100007               0                               0                                  60                             1070                          50                          20                    0.031506256991499997 -0.0062654075234400003  0.00239404578079           2.0000000000000001e-13              2.1e-10                   
                     0                                        1122                                    69097.793337199997               0                               0                                  60                             1121                          50                          21                    0.024288131699500001 -0.0028568462470799998 -0.0034787297013599999        2.0000000000000001e-13              2.1999999999999999e-10       
                     0                                        1173                                    68749.257643399993               0                               0                                  60                             1172                          50                          22                    0.018047202065599999 -0.0078496780997500005 -0.011396902333199999        2.0000000000000001e-13              2.3000000000000001e-10       
                     0                                        1224                                    71700.030996300004               0                               0                                  60                             1223                          50                          23                    0.0163912303376     -0.0023768482933700001 -0.012289554003000001        2.0000000000000001e-13              2.4e-10                   
                     0                                        1275                                    69618.058510300005               0                               0                                  60                             1274                          50                          24                    0.015258715884999999 -0.0044276645619999999 -0.0110987511026            2.0000000000000001e-13              2.5000000000000002e-10       
                     0                                        1326                                    69687.168785500005               0                               0                                  60                             1325                          50                          25                    0.0138747069749     -0.0079112905565500002 -0.0099281770608000003        2.0000000000000001e-13              2.5999999999999998e-10       
                     0                                        1377                                    78353.375825800002               0                               0                                  60                             1376                          50                          26                    0.013724356528399999 -0.0018614196013200001 -0.0045363371374599996        2.0000000000000001e-13              2.7e-10                   
                     0                                        1428                                    71021.685808099995               0                               0                                  60                             1427                          50                          27                    0.0131051642675     -0.0060214727580100002 -0.0039844396932400003        2.0000000000000001e-13              2.8000000000000002e-10       
                     0                                        1479                                    67919.047267700007               0                               0                                  60                             1478                          50                          28                    0.010645944985300001 -0.0047618166752299998 -0.0074527439691000003        2.0000000000000001e-13              2.8999999999999998e-10       
                     0                                        1530                                    74634.796941399996               0                               0                                  60                             1529                          50                          29                    0.013252057470800001  0.0016449164925699999 -0.0080926190402000001        2.0000000000000001e-13              3e-10                     
                     0                                        1581                                    66729.708226400006               0                               0                                  60                             1580                          50                          30                    0.0076606146452200003  0.0022279086151699998 -0.011462582229799999        2.0000000000000001e-13              3.1000000000000002e-10       
                     0                                        1632                                    67695.970195700007               0                               0                                  60                             1631                          50                          31                    0.0063801777821199997 -0.00049976843673499999 -0.0096787991423499999        2.0000000000000001e-13              3.1999999999999998e-10       
                     0                                        1683                                    73080.255107100005               0                               0                                  60                             1682                          50                          32                    0.0011069287961     -0.0051781811540899999 -0.010468403432400001        2.0000000000000001e-13              3.3e-10                   
                     0                                        1734                                    70989.2862112                    0                               0                                  60                             1733                          50                          33                   -0.00080920781994799995 -0.0052685144085299999 -0.0062783728442999997        2.0000000000000001e-13              3.4000000000000001e-10       
                     0                                        1785                                    66815.729307100002               0                               0                                  60                             1784                          50                          34                    0.00098384259328299995 -0.0020661768125800001 -0.0045189471912            2.0000000000000001e-13              3.4999999999999998e-10       
                     0                                        1836                                    73413.988212800003               0                               0                                  60                             1835                          50                          35                    0.0013220789231999999 -0.0024610267550699999 -0.00340513235755           2.0000000000000001e-13              3.6e-10                   
                     0                                        1887                                    78859.173923099996               0                               0                                  60                             1886                          50                          36                    0.0021413777069000002  0.0038969430747400001  0.0034546865912000002        2.0000000000000001e-13              3.7000000000000001e-10       
                     0                                        1938                                    73260.076886499999               0                               0                                  60                             1937                          50                          37                   -0.00178764589323     0.00164251804865     0.00122827210317           2.0000000000000001e-13              3.7999999999999998e-10       
                     0                                        1989                                    73624.7802409                    0                               0                                  60                             1988                          50                          38                   -0.0018365175373299999 -0.00213495346956    -0.00049551005509900002        2.0000000000000001e-13              3.9e-10                   
                     0                                        2040                                    78458.324391999995               0                               0                                  60                             2039                          50                          39                   -0.0032470730993000001 -0.0028355304523599999  0.00075867577888200002        2.0000000000000001e-13              4.0000000000000001e-10       
                     0                                        2091                                    69657.383973300006               0                               0                                  60                             2090                          50                          40                   -0.0025047836671800001 -0.0019964368736699999 -0.00156541062612           2.0000000000000001e-13              4.0999999999999998e-10       
                     0                                        2142                                    72656.390923900006               0                               0                                  60                             2141                          50                          41                   -0.0042153244982600004  0.0040172154893900001  0.00131044274477           2.0000000000000001e-13              4.2e-10                   
                     0                                        2193                                    76831.059856099993               0                               0                                  60                             2192                          50                          42                   -0.0068075973257199999  0.00170895081024     0.0012268847775800001        2.0000000000000001e-13              4.3000000000000001e-10       
                     0                                        2244                                    75865.478559499999               0                               0                                  60                             2243                          50                          43                   -0.00600183269638    -0.0050199239155600001  0.0043461089240500001        2.0000000000000001e-13              4.3999999999999998e-10       
                     0                                        2295                                    73195.886583700005               0                               0                                  60                             2294                          50                          44                   -0.0084985476998199992 -0.0014578494920400001  0.00369135126761           2.0000000000000001e-13              4.5e-10                   
                     0                                        2346                                    85169.316376500006               0                               0                                  60                             2345                          50                          45                   -0.0045683330186300003 -0.00092562926815299999  0.00578775452728           2.0000000000000001e-13              4.6000000000000001e-10       
                     0                                        2397                                    69502.026540499995               0                               0                                  60                             2396                          50                          46                   -0.0015651471356399999 -0.00043121196880299998  0.00417482143356           2.0000000000000001e-13              4.7000000000000003e-10       
                     0                                        2448                                    73679.002273899998               0                               0                                  60                             2447                          50                          47                   -0.0030323481395800002  0.0040198142422200002  0.0057457226549700001        2.0000000000000001e-13              4.8e-10                   
                     0                                        2499                                    68178.732230099995               0                               0                                  60                             2498                          50                          48                    0.0018610292047599999  0.0032113035470800002  0.0045811029673700002        2.0000000000000001e-13              4.8999999999999996e-10       
                     0                                        2550                                    68974.059113099996               0                               0                                  60                             2549                          50                          49                    0.0068075769539300002  0.00075226274173700002  0.0045007629820999996        2.0000000000000001e-13              5.0000000000000003e-10       
# Table End
