# OOMMF OVF 2.0
#
# Segment count: 1
#
# Begin: Segment
# Begin: Header
#
# Title: Oxs_TimeDriver::Magnetization
# Desc: Oxs vector field output
# Desc:  MIF source file: /home/martin/PhD/repos/ubermag/oommfc/docs/ipynb/thetaevolve/drive-0/thetaevolve.mif
# Desc:  Iteration: 1427, State id: 2863
# Desc:  Stage: 27, Stage iteration: 50
# Desc:  Stage simulation time: 1e-11 s
# Desc:  Total simulation time: 2.8e-10 s
# meshunit: m
# meshtype: rectangular
# xbase: 5.0000000000000003e-10
# ybase: 5.0000000000000003e-10
# zbase: 5.0000000000000003e-10
# xnodes: 100
# ynodes: 100
# znodes: 1
# xstepsize: 1.0000000000000001e-09
# ystepsize: 1.0000000000000001e-09
# zstepsize: 1.0000000000000001e-09
# xmin: 0
# ymin: 0
# zmin: 0
# xmax: 1.0000000000000001e-07
# ymax: 1.0000000000000001e-07
# zmax: 1.0000000000000001e-09
# valuedim: 3
# valuelabels: Magnetization_x Magnetization_y Magnetization_z
# valueunits: A/m A/m A/m
#
# End: Header
#
# Begin: Data Text
 920502.644039803 -1429221.71286125 421.665359701358
 597116.193496427 -723777.143401831 1417603.22310350
 -101205.863978647 1676890.91375506 -260373.263723562
 1199144.98686479 -673818.285430027 -999009.618921250
 803214.295301670 -937885.288362664 -1168425.42838468
 136578.861969442 -1300713.65648824 -1086043.36851165
 1678699.52218676 -230053.497161307 137997.473360129
 628765.247402839 1566666.69389495 -200523.649225474
 1093213.80095489 -407508.884199659 1236454.64724757
 -1356414.28776257 -271771.806589433 -988069.008266462
 691323.411762903 -1221643.64901984 -958988.391565815
 858516.017978420 -1229295.03982335 -801114.194069846
 -1091980.26599779 -526157.613966560 1191946.83771400
 339554.854545239 1532668.50621062 652403.058564930
 -589442.624052318 714837.669671047 1425329.61064085
 -39874.2438309552 -758951.386928126 -1520658.68522781
 -312833.766088507 1006391.59414570 -1333908.16551506
 1404293.74693362 -926387.598635491 244468.994797900
 -603839.283507798 1291050.79502169 926588.346768214
 -816641.540979202 -854342.265753202 1221963.94647911
 287875.570496045 1588750.92834935 -531975.698298952
 288889.152515782 1384261.62928938 -943590.376824517
 1633529.45998701 220007.354695248 -416146.929863180
 -162578.539925080 -236608.595119397 1675584.85045415
 -448602.135906523 -725077.330673087 1470720.56768242
 1198677.45719195 -552269.905592115 1071527.09018350
 288291.025428210 1457653.18173492 -825914.938983202
 321637.602040506 -670382.018007909 -1528769.83319441
 957393.772449352 -1344047.40086072 -408575.266890617
 -479056.683307481 -1494659.31713268 653068.311807342
 1436942.86160525 834978.862806326 357778.578381068
 420732.697232675 -1551614.70214613 552698.664340061
 -1693993.38786371 -86904.6046038141 113287.208336573
 -1117777.52692447 -731830.636770454 1051188.52704297
 -622599.513361291 -1402378.93736067 731917.455734891
 1013375.17683980 -1358234.70980355 135163.693534083
 794679.004654263 -468923.427017536 -1427794.13752678
 -143969.219679692 1651178.75935980 -377996.783615739
 876859.516442644 651009.705100448 -1302806.10694339
 631346.533444804 1477923.87465389 554204.452738561
 293245.817118837 -1670976.43185595 -108833.151770375
 1212570.97814514 276805.087935119 1158900.58514670
 1276135.79053401 562229.454175291 -972304.214212764
 392076.594009062 -1532807.77005708 621913.405935986
 -617259.970605697 -1583121.55504165 52117.8534703084
 -1453832.01533857 265968.415908770 -840019.805073418
 1130058.55898644 -1218803.19753090 357052.403646776
 25733.0686783522 -1281110.27091791 1117181.40108267
 -869013.177439521 558213.273067642 -1350264.43306768
 723509.692492673 828240.142166768 -1296361.05764279
 -1336118.12641343 -641278.065801012 832796.970811001
 -1144863.96210780 -417174.137308970 1185433.35849273
 524615.529054237 1568915.90588944 -391511.720031815
 120649.453081691 -1040717.17844151 1338787.31095265
 -610345.396099352 -1408590.37809410 -730309.279826742
 -435385.330741492 -165535.547922997 -1634942.68894936
 1640916.49662426 398095.010661001 197264.831110831
 -1286179.56073361 -166934.921394258 1099033.60711590
 777876.371712299 -538434.155435581 -1412443.63094323
 -1159057.49368007 -968535.038226171 -780080.512557719
 -872959.226078763 250606.423769667 1437059.01408722
 -678002.788873617 574336.509794892 1449292.85922350
 700596.318583763 -527812.229692476 1456220.81037662
 -870723.828389548 -655992.213585193 -1304421.03263871
 -1203027.69299061 -874667.690912431 823213.702735564
 1320440.81238905 -584909.756642009 896837.018394278
 266118.095589030 1557475.17098392 -627257.722924689
 -595815.310157799 -932398.901715798 -1290595.36813857
 -203254.592221805 -148730.203756652 -1681239.69059479
 237188.995973870 -1678356.26790389 129852.293690338
 -1427077.51023431 42782.8096361686 -922832.276734557
 -224956.721600907 -1377125.79743561 971040.169840525
 705481.790659233 635235.754633040 -1410237.91577309
 1114737.24324511 -1169982.50581007 527732.711342297
 1382185.74053589 -865943.856460578 -479274.259811059
 -1314452.91465715 -1073112.44849204 -103165.924804337
 141439.677597909 1655220.21168846 -360888.997364845
 1697264.76029083 -32786.2949915861 90649.8336216299
 882782.905471353 1024415.16979264 1030178.57758074
 614798.302427949 -1358335.60900021 816668.488833584
 -498364.453735990 -1420464.14334325 -789882.579076506
 -1319573.38598724 784614.646494450 730141.038088223
 1658473.76460867 -351522.062911761 126083.350966731
 -1003506.11913804 853975.611653780 -1074104.80101015
 491616.220607580 -1537722.72058295 532655.917303563
 -542169.043857266 -689703.077510804 -1456146.41872135
 1512459.46497169 -766116.253812742 -124628.457671161
 1482643.25546578 817949.580253370 150756.297331706
 863707.062083110 1210080.75520273 -824448.104367851
 -677182.560527478 -69857.4308610864 1557736.72970465
 -1179784.41479871 1193380.71941167 -271939.686575060
 -1065929.85613313 -253553.437608800 -1299809.29219666
 50550.8066815456 1533806.19389190 731357.077987689
 -351577.046337702 1655711.73114283 158152.596704818
 -451126.625290043 -952405.401667776 1333944.79601986
 1022588.54193363 648994.742462704 -1192945.30392714
 1151784.03208866 1132384.42894426 530187.748359181
 -186270.734856480 787426.392075908 1495079.55988915
 -530049.532552697 -265228.912679704 1593330.19707762
 110182.184634889 -696072.760690332 -1547043.17910459
 1114588.34680471 -623026.343501922 1122288.28402945
 41294.3578622969 -1552457.30955894 691499.152570526
 1269890.79640086 -609845.491590481 -951559.688933463
 808465.126695799 -775590.644017495 1278609.90604221
 764694.382396034 997564.987496595 -1144598.88050481
 258152.007188924 1660950.24514868 254168.889372560
 -343297.936976274 -1590529.14019426 -492304.357751115
 -505889.021569299 -10954.9174650843 -1622946.79137641
 -937534.703934606 957207.289221183 -1046318.72982380
 454604.962091108 -1510683.30017316 633380.055748577
 1439738.93304421 -694094.925657215 -579123.509152949
 1200413.58002943 1173455.11664225 -268347.398174544
 1667725.78230713 235163.119664021 -231060.646103894
 1058030.81618941 1328244.69287139 -79604.1949431706
 -1378856.16983271 711668.311231555 -694466.613814580
 -836909.602371791 -932640.409055183 1148809.89935466
 1055137.62201533 91851.1876001408 -1329754.84881398
 -976045.244419842 -769429.347577160 -1159876.78653053
 821630.548724433 406489.140904724 -1431673.78258084
 -1564863.26099734 642199.021500565 -169656.686176814
 475676.649977911 1543424.71750017 -530633.457365177
 -937170.702100065 -1418030.76665738 -29996.9988223891
 1300550.92860891 670517.731099528 865432.408900685
 -1495295.13605581 -572199.992358476 571558.942570933
 -1300111.64105393 -1091582.43691445 90318.9028717659
 -474077.559584850 120441.372574809 1628110.66677618
 -976722.705872188 1241689.99614106 627868.385345938
 -975573.116663852 149589.194227746 -1384153.23104527
 806105.074704126 -597506.175316468 -1372290.41350399
 -168370.602065121 -1670004.44660316 269697.031288609
 -666879.496540532 1425565.07578374 642678.731404390
 -768361.992652177 -1252991.37930640 854185.256037249
 -660507.755259899 -1123776.35718108 -1091263.58148816
 -182604.387327551 -1678171.57827427 -200987.043366404
 93965.2613102759 1624067.43885683 493533.670292007
 512356.718501044 -1487556.68221172 643945.424872406
 -1675377.32289768 -231662.641898174 -171590.344334838
 1091348.72964426 -1302493.79567899 -49677.5857060613
 208251.994477895 92073.6895963740 -1684682.03008167
 -1297058.45653218 1087427.65695722 158557.406710973
 -472682.911619144 1009770.16516725 -1283329.68429837
 1451581.93141833 707911.729556684 530820.948659617
 311215.283104636 -292902.648662033 -1645403.62402933
 -692819.730635901 1205126.50464649 -978606.626096576
 -1601356.41386424 241439.907437875 517072.922199795
 625464.257019800 -928277.313063679 1279490.40373187
 1072357.30243991 -168915.206937649 1308249.77308197
 -357916.343863717 578924.050252848 -1557800.64027271
 -1251132.58380775 -1143134.05400162 133834.944302181
 -30327.1747299165 1334920.30797116 1052173.00565975
 1608358.50013456 439896.006573143 -331171.312836572
 948364.701568447 547720.920862735 -1300233.12743072
 768067.595670812 -1400343.24856267 -582332.340408297
 -710953.751773210 643771.233064475 -1403603.70558012
 860202.974408645 300656.113748975 1435150.42559443
 435334.954676932 -1205021.49020314 1117321.20958345
 726714.106666773 1348995.15556780 736273.507214614
 -171887.042223020 1072860.26697539 -1307450.07256924
 840770.473590232 408730.584475455 -1419874.75505877
 1341241.74472354 -883172.291691443 557743.028104738
 -174011.169223640 669944.142813990 -1552705.68959306
 1626389.41711018 492295.242288722 -50028.5751536353
 686708.934603757 -276312.596037130 1530386.28731657
 551143.938145946 -1545384.27498009 -445003.148403745
 -72579.6392863714 -1388506.81635669 -978151.837340229
 780459.624017097 1482033.95777854 290616.797983816
 -1568412.27242678 -241254.835103157 -609818.865107025
 -1476639.80223150 -655274.890240157 529291.708499629
 -369166.218750560 -1605078.01269959 -421237.315633043
 -1393968.72730517 -99390.3784605821 -967973.522346907
 -726157.153116131 344579.403248693 -1497985.58866067
 -95797.8731552586 375247.440217011 1655298.19854596
 -96741.0114019769 -85248.5671159760 -1695102.90499356
 1370412.14724943 -764771.552044734 -653525.072093093
 -999483.506747357 1201922.41200104 668143.124838987
 -1352210.65332879 -752086.276065890 704196.408949560
 1375090.21671592 979350.282267983 -199999.801284358
 185952.175285947 40896.0988277970 -1689304.38275850
 -981793.764462671 -1207614.74921708 683920.771387737
 1451552.15800432 222630.019269346 856406.566481789
 968555.885038224 1393595.93400324 -98943.7733637493
 -1597853.95669677 44800.6953455913 -578667.115676210
 623894.146688384 204992.795220534 -1568035.09132788
 982751.151737949 -1247654.99383463 -606264.950427823
 -39233.1607532382 -1699212.32067707 -33737.9364599181
 -634017.688691829 1576524.01567670 -50927.3837978186
 1037242.45484614 36552.3463552124 -1346399.64937632
 1199172.08502749 998930.295916613 673887.657099297
 480403.715027946 -1403824.28749800 829752.758608292
 1563424.85246886 -348926.788081989 -569168.540277390
 736854.840823619 -1115939.75376581 -1049630.12986476
 -477467.140630301 -1558604.18363652 482470.857533439
 611067.444280357 1426114.92011595 -694832.939031634
 238245.184168742 445466.902119374 1623206.23191773
 -328779.154277259 161705.731905665 -1660046.84391182
 -217839.063188698 -592309.243371483 1578516.99476622
 1404355.05129050 -642258.830822294 -710837.874726466
 -307931.869714427 -1450945.85327631 830622.714879903
 -17964.6156231510 -209790.814089803 -1686909.92258302
 1688367.68122523 -77247.5015022463 182886.293925528
 -404845.664412844 1232794.54238989 1098324.90833079
 894907.582068954 886222.872882739 1141818.47906529
 765212.840624923 631035.267502043 1380667.88175555
 1484741.80565470 826689.733944578 -46106.9878855269
 -980112.447832330 1352777.45726835 -315234.421836642
 1101672.05385228 1110648.58206763 -665415.969835453
 1540405.94573150 -285662.104325153 659959.608239460
 -1122021.27758026 1273447.85877257 96947.4272208147
 1677414.91065461 259450.669153377 -94681.4014970424
 -145354.296992767 -1551314.99188959 679921.998676568
 -1393851.74174983 -37461.2997834635 972509.112059881
 991231.578848591 1289760.77424904 493940.383347881
 -828662.359542187 -345843.956152470 1443506.37403192
 -18485.6852295338 364584.618591763 -1660342.23439865
 684690.967036220 1209684.91991503 -978703.568088510
 447822.062860024 485708.953044119 -1566378.69397811
 -252520.877571423 -1503305.91880342 -752532.072991682
 -898664.023771083 524388.686887329 1344403.01898060
 -240720.262158366 -1519846.87589337 722578.182083836
 -310160.038123550 -413047.591890066 1619627.25266804
 70944.0519900166 -242158.937279612 -1681168.04352892
 -1355455.61494062 -64198.7444327542 1024020.79917314
 -406818.721603434 347705.381471688 1613567.31977584
 1490728.00977586 784790.335792445 -227671.099871029
 1558437.28663836 -606790.612291639 -305087.489828757
 177345.145442375 -762171.831921823 1509186.13762947
 912905.718449316 -1347008.57134580 -492108.786696085
 -347760.388567411 -1331115.24101730 -998596.478701430
 -1602105.38365968 -26158.8829120764 -567956.030422645
 -79281.2401694445 -1226365.73545749 -1174624.01127042
 691394.356936982 -520328.988064101 -1463294.77118450
 -1160356.41701927 -1238472.77199261 98783.4931309751
 -1157212.20522453 928156.860882766 -830291.968933593
 -1505405.69340706 -624849.019674191 -483029.399591590
 1207020.19120439 590954.975464862 1041092.92332541
 857659.243230286 -1297281.38363173 686645.202549466
 -1040514.43184263 1338257.58154800 128048.282130313
 -573477.182872931 1099907.03406064 -1162466.53162491
 1065019.67042388 -1060406.34503855 794525.949867084
 -736494.118979399 -1438732.86276068 526900.524123118
 4943.91340413386 1239342.25613202 1163617.77654256
 -959424.172763659 -1042697.91511501 939300.971218264
 -796749.258939003 -1188001.10788952 -918609.811635732
 1087216.88509134 707935.189643121 -1098538.67116148
 66262.8708064997 -1647876.62403562 412446.195169077
 1295762.11299976 -515805.535333175 -972082.916336894
 733872.668690539 760926.789226368 1331323.14919657
 1320727.58680276 174746.304375710 -1056003.01636179
 637826.359159395 1156125.45840318 -1070771.43218967
 1523408.61908498 716820.024351619 -235361.917025998
 -327775.707975136 1223817.02339835 -1133505.61467591
 324762.582768420 1533450.00896734 -658073.198688157
 1470883.31832785 -163133.987395119 -836594.027005577
 495044.203964938 -1300385.10506027 -976693.306344477
 -915391.385913400 -1206416.25436996 -772410.792122630
 1102670.34428059 -785551.217754265 1028118.37651552
 -1514035.54360121 -765060.506465532 -111260.029475471
 372212.442589946 -125576.099749208 1653991.69911853
 455711.132931031 -936510.305364861 1343605.52665882
 -676023.424159180 -1459163.77405138 -551210.858460007
 602568.089481303 1175369.58204145 1070242.04886118
 -656609.554686785 401204.037073926 -1515882.32172870
 1559064.07336806 -677626.503370308 11896.9350300724
 919073.334467876 -1412011.48420761 -226997.300283349
 1324932.42865162 -1050813.21465698 -174200.021267486
 -77653.2102928260 1564300.67253839 661009.368184101
 -1270577.87651333 -58333.0606873721 -1127931.34265598
 -597216.612747991 -837744.035558826 1353335.60078180
 932863.369971759 1421047.74492199 19729.1565214382
 -1287994.96832180 676212.836862983 -879661.958276832
 1459506.39808697 790679.841793007 366969.292619122
 -858486.174908322 296636.587455204 -1437013.64728182
 239635.067994812 -1208275.91623230 -1171599.05447219
 -276497.803726446 1129829.95275978 -1239771.44763915
 497014.636465978 -1476529.41471559 -680321.496513397
 1333181.33174781 515006.219230856 920541.216259584
 -272711.836421443 -498827.850163038 -1602123.28807036
 -959611.792886345 1402860.22911535 -33591.4352161626
 391130.472173805 -1555349.91006906 563829.416566094
 -690644.506623991 -1417555.23799429 635253.738835960
 -823585.379397291 518066.196703529 1394028.16997224
 607183.186938115 -1532017.61940624 417433.337586384
 806138.934741901 -1316959.32863177 711166.748817009
 89413.2311417830 -567409.989619051 1600015.99297547
 766840.658015244 627761.903348528 -1381256.81823439
 1398992.92124102 202224.514110064 944417.308296739
 1580039.95639430 -598854.040696340 -186675.049589309
 425495.487172580 312341.923972203 1615981.47047703
 1531978.05064040 -717458.437206781 168216.061173852
 419263.777624481 1350007.39384944 944297.580916038
 1187312.85509688 -1182528.02819930 286209.096020313
 1671882.47715882 -179760.696492219 -249990.148937782
 323211.101405057 -988042.532541898 1345104.65682664
 -1607000.95299466 535107.317581537 -145629.996034250
 318999.042982483 1157566.73819613 1203444.58002778
 -634933.666368208 980844.496944253 1234829.26436265
 -1549005.20509262 -694466.598626105 -91098.9461446608
 1638109.78027018 25502.4436748278 -453812.707126851
 -442374.910516283 -1560876.88264447 507905.301972521
 -448165.455219862 1503141.77213638 -655524.627764877
 1175496.53351905 202792.848434807 -1211232.00102556
 -816958.826080813 -339393.582184424 1451685.32156962
 -1339803.37222410 -1044780.85777406 57964.4978055445
 -1370895.14578847 203508.446653264 984495.206384660
 -1188457.35099911 268738.685907670 -1185474.01639716
 921416.345904312 -860083.783004538 -1140722.49198170
 1227576.67342064 -858780.331378078 -803462.415618597
 -449114.926616375 1634438.82056897 130021.246369454
 -11527.9206954351 645697.499166804 -1572559.01212456
 1124710.06226879 1028525.16962577 753102.417522091
 -884743.910712188 1194754.13696241 824494.247808268
 1364334.39166301 -619027.512617783 803365.798592248
 589247.754470857 -1384412.94129787 791320.347152795
 62757.2493330029 1698647.51217993 -25654.5711541818
 -379706.498327511 -1069189.95712102 1265960.43015547
 -1125374.18864697 963703.860616665 -833551.320891347
 -115612.320377899 1158737.71734750 1238531.66845792
 1014530.96366664 502989.953869382 1267962.15640220
 278351.621741530 -101063.274021110 1674009.13656945
 -1025455.81291700 -954109.476458236 -963387.503908643
 1678275.87151693 117566.549082718 -244065.986202237
 590908.153110133 -549252.227014970 1496378.81089885
 1103743.32176376 1195998.33560323 -491262.313734945
 176734.520274502 -1544723.58446238 687454.694470133
 -710305.216172408 -765910.598136598 -1341211.18976107
 -1511015.63713462 776743.513300169 59171.4363589235
 20275.7803261048 1677357.78711372 -275789.315857441
 -219484.953242174 -1123328.74298461 -1256964.15640419
 919233.820670874 -1421250.71874054 -158289.536654617
 1372276.56777142 9117.99976890746 -1003381.22547001
 797054.324904544 -1161207.60748225 951998.579555824
 -1442765.12352758 -839169.853761365 -322835.491962373
 958722.863309490 -737347.417873390 1194641.89476307
 -1483228.19299716 538426.663120062 632558.974278116
 -1066448.67594297 -742716.980269508 -1095928.24071598
 470792.412493563 -1611243.26578480 -268792.936666183
 1542540.55356669 -665988.271469646 -258898.170845307
 -1140602.20084815 -463065.501798202 -1172432.07072510
 -1565312.90657976 283653.624586158 -599446.516174669
 -308416.623109090 -1359346.51206384 973168.149257804
 -1593481.26990792 189466.768630571 561177.143188613
 423051.956585775 427137.169642388 -1590151.21304197
 1357883.29500261 -857767.116474545 -557125.238207541
 1265671.53780538 -1045577.99805750 -441409.343316866
 -1509954.93861298 -777478.633332703 74585.9106627751
 -1204500.82952004 -416150.819175973 -1125164.98673959
 -1403821.21463828 -721105.735834975 -631895.968556070
 -674629.445248296 -767967.516684272 1358344.95063727
 -1357928.05135206 999762.795642236 215651.941333280
 -359241.530451701 -1657478.13809126 -117097.158583199
 -1544238.75016196 590114.459095218 396347.836710356
 1575645.59199884 -311567.889226775 -557015.636061863
 -659071.712738945 -1566949.18942444 17167.2720443505
 1457618.38565553 395159.925943143 780510.906219497
 -37863.5055822334 447215.149476574 -1639684.41019108
 -1639013.49998066 432948.714341172 -127240.550263922
 -40796.1213021087 -1623873.87186913 -501367.454814794
 34888.5810323111 -1175235.73272115 -1227845.16916790
 -712378.159649530 306204.092938420 1512863.64591199
 -1131640.31272628 -848275.862197115 943301.788520788
 -1087869.27667706 -361275.289374462 1255396.59157954
 -802495.045975183 -822339.690419470 -1252900.28922740
 880370.693034393 1118468.83376121 929502.507124639
 -1109336.66132391 1228735.08555197 -386758.660376607
 1070141.75209511 740975.953162767 1093504.12310944
 -1056612.57331123 815064.079844326 1053204.83082264
 1228495.46975788 432241.489168156 -1092687.59296793
 -136868.721121366 118655.414150439 1690321.81725001
 -442491.705326641 -467612.320048869 -1573384.82541800
 -641702.079179360 1490081.71899764 507813.855941264
 -353846.946116707 -1075897.10820457 -1267768.80829310
 -316227.853756202 -538178.409685155 1581253.91504891
 -382676.600656594 1537185.53602072 -616943.471607083
 -514279.578009607 950072.525031088 1312584.74500632
 -1297663.77608261 -252993.845566101 1068673.40116085
 -1196872.57316657 370355.756256253 1149057.29074294
 1110679.34041595 481766.878235964 -1193437.08581892
 -1533436.87213775 -645739.764023732 348699.750970623
 781354.787273490 -202261.985976681 -1496186.74818138
 706755.190146481 1488868.21995142 416855.520318125
 -336610.821581027 -1380405.28410294 933367.240916045
 -765249.864839324 -1426855.68612891 -518146.210374068
 1022126.77319632 1309548.08791152 -361027.235762844
 -482240.612828590 708046.086325571 1468371.45538101
 1294324.99000403 -1089648.21183550 165498.020214023
 -991658.401016344 764776.953603853 -1149665.09337725
 -1130084.69105810 -1248783.46249739 231189.218669793
 -100511.188355652 952996.009079029 1404170.96811420
 1270319.84190575 -1129728.45508958 -1056.89236201928
 -460266.242770217 1346602.84890176 -929954.704862476
 -1001291.48812121 -133713.580203794 -1367309.77992739
 -207312.563540367 -1539959.83392896 -689597.861716387
 1445048.19475694 298692.866221901 844167.214773140
 1460007.09988819 642168.355099465 -588216.857957100
 421870.688580908 -106570.200755918 1643370.89983580
 -664781.292432728 -1162579.02348685 -1047127.42652451
 90491.5484702460 830012.712340074 1480841.03704933
 -1125750.50381912 1266225.92557754 -139131.982470931
 -741109.603871183 199284.111345208 -1516918.71832846
 216701.287337980 -1639585.66674382 393445.540671509
 -1299345.75910025 -973574.439347364 503838.673940033
 1310168.67415628 -1066149.64965537 -191788.867766904
 423726.481258520 -1646335.06084174 6061.06620124720
 1617654.86337866 -480047.816869331 206753.081008134
 781829.826038852 -1300805.40800422 -765929.117884299
 -472564.459458388 -883839.110592918 1373139.19842204
 322018.116142421 1573407.56713933 -557398.385846957
 1213969.60560769 -837416.888712402 -845583.083534636
 -1250988.34926916 1037997.67446683 -497583.136565421
 -331308.944641441 1650794.14118090 -234761.765718742
 977387.722189872 995142.570068268 971804.767301754
 1225327.84202439 1178128.64572235 24177.9587288517
 786934.042113595 -1405513.50256126 -543384.401212189
 710941.870351694 947778.298081211 1219129.99908423
 1425212.28850243 269018.851933216 886791.288864641
 1546053.99520012 -351539.872833656 -613299.895429511
 1179575.24077113 -43988.8671958437 1223383.51751304
 709290.325578347 -1485238.63459916 425409.722896642
 626001.669882826 1492626.73546860 -519795.476960196
 1154241.48185349 22938.7117113486 1247878.36629765
 968969.776243146 1304306.80103504 499881.327417874
 -1697844.99972804 27898.6461014265 80895.1323888777
 901271.608506050 1418571.48269079 255664.694859043
 -1594609.92263023 -230223.580462983 542417.088270652
 1485337.09974420 811369.633694144 -159540.018937345
 871109.837909439 -1451542.08472672 -155541.719691539
 -533456.646076316 807117.060988507 1397850.51297279
 -367794.854983634 757327.092345308 -1476882.73733813
 -1381329.43107886 867012.787327433 -479810.201481879
 236420.821075438 -1683200.82528574 -30662.3077964286
 127544.069948073 -1339376.29908732 1039136.00633614
 -732102.415172018 -525954.452510492 -1441318.13545230
 -250014.472392285 -1097787.22674538 1273717.38167817
 1569682.82675167 -542935.660852271 -362376.450084433
 186296.411375795 283407.700789127 1665825.23760505
 -1279761.82979644 -190168.927344769 -1102744.50262452
 -989363.871256969 915280.602751591 -1036060.10852561
 -1622588.80286198 43751.2810305530 -505263.695742261
 -1454398.64007622 -1547.60054043424 880183.049528348
 -56378.2123015741 1644129.81020364 -428554.155711287
 667547.500408137 432160.566713155 1502537.04755557
 -1154977.74231870 -826182.334871143 -934585.022507460
 -994990.603411369 1374161.71303240 108042.980146505
 1205578.84510152 660776.889430678 999976.775049297
 -925699.027457317 1213207.85933510 749138.171909645
 -492627.597344563 1476887.17362278 -682731.518770757
 916857.973946209 963925.415611727 1058404.10465427
 -688272.453675714 -1326191.92742279 -810861.271210945
 1039876.63276824 -1296357.50501895 357929.892302426
 1553442.20973225 -468101.749652949 507639.688158860
 1377052.29745898 -314526.867297949 -945938.591987171
 1610497.35891517 544331.861187619 -1040.10733657478
 755198.927582092 -390788.794119007 -1472059.33921492
 1564065.21636283 -525976.150339289 -408716.390958518
 51892.7381486193 263314.765637648 -1678681.76791333
 593994.561746177 -1270704.95449554 960457.900814222
 -949307.377701696 -1318438.38521131 500535.440346162
 -1188911.19993832 -1184331.23534987 -271752.982754291
 -640161.616817436 -591919.489051176 -1459391.79894745
 -1006740.10841632 1226292.00195363 -610477.092158621
 -762173.064451994 1382985.88107225 -629636.619470845
 536675.637524327 -1514196.72066118 -556046.357084371
 446095.941935927 -1481432.06463510 704526.400115202
 1489874.53088431 -813863.411609980 88883.2350041747
 -649643.055399404 -661941.937584971 -1424709.36398887
 -173625.400554439 25998.6615590317 -1690910.49138606
 -1529999.39649981 732160.361540742 -114206.180650354
 -971064.074934328 -1379413.63179948 -210363.007151253
 1629905.41151659 439038.878988448 201626.417528826
 -722475.008592687 988555.891468264 -1179316.37460114
 -428329.002839869 1449763.71744203 777637.080465481
 926001.332294009 363103.548294369 1378650.55246272
 699715.387125167 1219964.60138921 955031.281360742
 -858666.393748225 1462156.81659187 121611.956407835
 -1207429.32619589 -1196550.59211707 -19521.8530476836
 -192445.463368477 -1688504.87525664 -43772.4783790331
 -1471669.74565279 -84674.4858310798 846769.384885577
 224465.769013599 1550823.50734356 659212.839386298
 709659.561598012 1543574.09480304 61337.7574214051
 -388980.128308987 946010.867875039 -1357850.46954480
 -1647378.95533759 -409736.170064586 90878.2066923944
 1390478.99582266 -948982.323771070 236644.694312076
 1285834.90179803 -1093409.44695661 202692.838117437
 -517620.521580577 -664096.754210411 -1476835.97487529
 78794.5409039596 1186276.09300498 -1215129.80849314
 1649775.97309664 230723.053464084 -339125.509499400
 -606159.362215528 654983.118318017 1446916.70192754
 -321054.129147360 535159.413420427 1581305.99454531
 763637.313821061 1518783.13685150 12483.4352515254
 457488.292169959 1632306.70735025 -127590.264780643
 -1108222.65238458 726215.197337699 1065107.52504029
 1562357.63549368 228000.432464457 630122.544915377
 1602686.83852651 275132.184620138 495678.503266042
 131901.217962396 -473441.458173017 -1627407.52560108
 -1253500.99173027 -669001.374965840 -933366.178959281
 -725780.129612525 -1529962.14743727 -149863.374007050
 1084359.13531061 -1108927.02946110 -696021.629691929
 -335418.060155561 1407048.91114923 893145.053479692
 -640189.495016654 -1385945.30264043 747872.334398893
 713345.321073784 973221.995979368 1197487.95377827
 -1549939.78970466 -188683.968044713 672372.670840492
 727210.809663278 457258.374155275 1466996.66583594
 -1478877.32713683 -417805.174351347 726884.232574807
 1554907.00206387 61232.9132104406 684481.369558385
 904931.034862621 -1415410.41267238 -260217.574043482
 1220159.07786261 -901516.569974722 -767124.304640696
 -1095834.23946702 885134.403610275 951674.527954394
 -1367000.31466487 103376.689075040 1005297.66729165
 403875.496114252 904010.945218008 -1381900.42859987
 -695029.026191857 995258.335291437 1190124.15267640
 62240.1586797486 866633.909590643 -1461188.49892653
 -1302663.88658387 -494942.880296764 973703.416772145
 -1088667.57765471 461882.880534171 1221256.36540117
 -358688.260607140 1011424.28920365 1318470.18885962
 847394.476312541 1423161.25798117 -382798.426455039
 -118128.890774041 1695079.79497815 52440.9555721788
 399061.435672616 -1648648.30756940 112732.996533687
 1693235.15309361 151307.138614028 -7801.67497990367
 -697853.015716066 -1459858.23260782 -521358.906266287
 546959.340873714 -843166.424579690 1371096.59028549
 -257225.626212889 1604933.25608213 498020.301534981
 -851312.718549614 1065849.97941518 -1014509.96871215
 -241021.989332676 1108826.21693873 -1265864.45612770
 -145796.335021625 1668770.93652415 289736.069736866
 1390009.88043296 790417.018133704 577159.830327245
 -403076.968248969 -547264.587718792 -1558213.85845981
 -590315.456004068 1576784.85129042 -235111.027269554
 1387528.41721552 938501.979810663 289791.175350235
 516840.727987055 516034.483874520 1535116.95754629
 25667.4921340264 1127249.78328428 -1272261.41414927
 -1650119.21432712 373719.442018302 165651.311995924
 -1353310.25103398 -848755.937199798 581519.323423093
 -240615.531284183 69671.5067375573 1681442.84685913
 1168571.88550479 -1133611.20149289 -489249.826016950
 905479.494367701 485227.914062930 1354496.49563731
 -244021.042451666 1621962.83729213 446867.189760067
 -755496.092869799 735287.902273383 -1333633.14087079
 -1317697.95981428 -848971.264914751 -657966.471828410
 338944.820378439 1028266.91756731 -1310642.42071408
 -377808.985096974 65021.8173289688 -1656210.29282251
 -1195097.73239964 229911.208947018 -1186963.45605657
 -1196630.45489968 595503.628648540 -1050452.75128061