# OOMMF OVF 2.0
#
# Segment count: 1
#
# Begin: Segment
# Begin: Header
#
# Title: Oxs_TimeDriver::Magnetization
# Desc: Oxs vector field output
# Desc:  MIF source file: /home/martin/PhD/repos/ubermag/oommfc/docs/ipynb/thetaevolve/drive-0/thetaevolve.mif
# Desc:  Iteration: 152, State id: 313
# Desc:  Stage: 2, Stage iteration: 50
# Desc:  Stage simulation time: 1e-11 s
# Desc:  Total simulation time: 3e-11 s
# meshunit: m
# meshtype: rectangular
# xbase: 5.0000000000000003e-10
# ybase: 5.0000000000000003e-10
# zbase: 5.0000000000000003e-10
# xnodes: 100
# ynodes: 100
# znodes: 1
# xstepsize: 1.0000000000000001e-09
# ystepsize: 1.0000000000000001e-09
# zstepsize: 1.0000000000000001e-09
# xmin: 0
# ymin: 0
# zmin: 0
# xmax: 1.0000000000000001e-07
# ymax: 1.0000000000000001e-07
# zmax: 1.0000000000000001e-09
# valuedim: 3
# valuelabels: Magnetization_x Magnetization_y Magnetization_z
# valueunits: A/m A/m A/m
#
# End: Header
#
# Begin: Data Text
 1065061.80457451 441244.572561087 1249378.47733258
 1520372.60091885 667933.685609058 363774.306409833
 384224.571122500 -1489787.01856479 723122.478050278
 1108195.76540008 493163.213123685 1191088.65781303
 1031546.04196252 1316817.85416747 -303155.904209774
 -335618.746940735 1662322.04078606 -118513.667645488
 1235571.52247776 -911357.692140375 -729924.769971916
 1479592.02367740 799876.549523717 246991.799443320
 1207449.01574572 818380.306150503 -873109.700369725
 522313.637595505 1586012.67220499 -318986.312538532
 800468.926770614 -616218.188686589 1367305.61368208
 1271340.44181799 621973.738838584 -941722.968389957
 576078.389127922 -685839.988885669 -1444907.33240062
 862109.265426217 1260131.67483355 -747553.193122373
 1397584.69733753 451765.505410207 -855958.493087971
 1043417.07094556 -486819.672604790 -1250714.76461436
 1450361.10753727 -73849.9213266673 -883741.391394165
 1431907.62894300 449813.959088998 -798315.692181689
 708162.575047660 1343678.86039503 -763565.902479529
 845938.146365865 -373947.678402655 1426377.15431100
 117030.784616709 1063748.17815334 -1320887.43234518
 1498146.70407936 783547.070321062 177793.255348568
 84368.4031269211 146224.925671155 -1691596.95071441
 -253268.235325140 1368690.47909807 -975982.363263590
 1169334.34222231 -1011175.34748448 707235.189126753
 999433.067660030 1328691.93148736 -354557.885920000
 1351292.66929463 875051.816611880 -546161.551333346
 1494673.32179876 -762167.635803500 273956.485662910
 -646350.657568737 -879609.001976596 -1303272.35492133
 817201.292009315 226529.674374473 -1473386.01695757
 395665.467054755 1374271.23002652 919144.942053074
 1354472.49728910 -466101.517095820 915507.307370288
 791858.921684327 -1399166.61299328 552532.566672621
 285960.623209759 1674489.92319140 -65650.7357457005
 1675352.27879629 242111.660892956 156769.530176387
 1314986.51668397 -942771.107837766 -521529.576501372
 -561863.255673547 835691.560844732 -1369645.68303515
 1530014.53574370 310685.316612178 672703.615609860
 1168635.13466755 -1186702.68110766 340629.811778790
 1278271.83198490 -737997.320245522 843434.098708603
 1425839.85016368 -603485.460124090 701987.194401744
 852407.457365063 -1364892.48273487 548151.472863365
 1394335.45110756 960877.287772613 150144.888782238
 1496742.19825566 400602.988860806 -699485.551871228
 1438772.93775524 198859.746613006 -883395.287943152
 1019736.48007215 -467938.757762488 -1277172.98366109
 25851.7053393813 -458014.549487433 -1636934.44028430
 1553326.12036709 -653554.366121604 223706.625536032
 1450091.84443783 852789.104946984 244917.098583634
 1461443.96326654 -758107.751525388 423620.324475709
 436688.873303403 -1000317.09338555 1303329.78965943
 674650.779945834 -1517362.97497981 363944.950890790
 1442515.87968390 -889747.800746543 132275.424499336
 1166942.68033871 1082693.66191206 596673.457813698
 1486324.86316154 702010.499582477 -433612.337951534
 1263999.21081345 -1030664.41920569 479621.569621695
 1111837.70961247 -577217.907910359 1149189.45099200
 1369547.96978035 -780523.169835363 -636491.900828808
 606179.497309112 -1526815.35533774 437471.470780611
 1639672.17521141 341709.351001736 291049.613082495
 553828.587441293 -1542885.17617152 -450310.147435046
 1126136.79121756 1272377.33376822 53589.6256668271
 1142085.96951086 772430.872006154 994479.857120417
 154375.683581822 -274909.963657153 -1670506.70761918
 709681.764113303 -613279.506389790 1417829.34118579
 680712.966526902 -1438266.62038332 -598346.877566258
 1596217.18004419 54164.0007476185 582371.852989812
 1506785.44442846 -618601.531987109 -486754.321071452
 1040425.95125228 1335406.59108385 155573.379633530
 684355.848548738 -621872.322563926 1426510.38796992
 1676808.32616115 123361.307075103 -251188.823862394
 1052069.17558348 1293549.07243777 -331483.403781380
 1656296.43556000 269266.018976252 272356.253050906
 1138584.58887250 896897.564723190 888369.232006401
 960935.313371073 1399086.80311192 95704.9678674243
 956495.294584640 328801.121484254 -1366384.48979346
 1472791.03126612 -422445.135597059 -736496.222415605
 -249836.140585302 701886.293294106 -1528050.23940422
 1610923.76898933 116909.142224963 -530336.556320062
 1599322.73866118 -441844.143181740 -370054.767213313
 1416204.13505794 324290.652582214 882723.864236494
 1666831.77373385 -196559.537861124 -270252.078895032
 615650.351346153 -1068929.57386099 -1169771.00793819
 1188107.36706934 -1212936.10149362 84775.5743655559
 1187089.15897170 978015.595984755 724088.960461660
 1546675.20131370 690137.778650456 -146648.109843362
 1366245.54683246 -941018.931382900 -371290.286082799
 704561.662490965 -1314056.42637058 -816607.967180181
 1473604.20515920 -825736.124667826 191443.200338059
 1623945.62963495 241352.229497315 441077.876690969
 1318451.23090432 -178428.379218008 1058229.49553323
 703024.860192634 1377397.80078178 -706067.521100237
 1556802.36393508 -185197.383088173 657319.046539387
 603224.638036562 1381868.19733210 -785213.551378090
 536523.273684715 568830.837696528 -1509494.70183903
 406930.435858242 1516171.42919798 652404.642576967
 1114909.44334982 -1244027.88795486 315232.528651396
 1543554.40352139 -211698.356000505 680164.398830456
 -775329.527836978 -1395901.83176890 -583371.407705509
 -275000.423077985 -1495350.57613815 -760461.321666145
 -532177.969161720 1492450.86780492 -615935.886539550
 1595751.66719553 -321086.036956861 -490387.982636229
 574693.343455152 -1218638.98286478 -1036651.62442868
 938355.619614119 894627.149459877 1099604.92659314
 1166183.26016997 984252.023679737 -749175.918981432
 995072.056517835 1310297.66912250 427728.442623949
 432828.292749942 -1086179.41618347 1234047.78872397
 1594817.81556823 555933.589616575 -193633.620743408
 165581.611620865 -1533423.42913248 714979.242272538
 -69212.1098932144 -656245.541158720 -1566700.82452057
 1235992.39587326 873056.457026028 774658.131170547
 1538374.66039756 -663654.194448469 288039.084913202
 1591812.94267965 -527332.900671330 -279377.106054005
 853130.460594535 -1425540.87255318 -360557.398878576
 856454.598093695 6100.26857600036 -1468485.03844182
 630724.865155764 -1411293.13132932 -707416.314440749
 698103.016904533 -1410641.31929690 -642450.967841971
 723210.934853579 1523431.75538507 -214759.471019539
 -77415.2515514438 1546651.07649727 -701339.665495313
 991500.757859866 -1101757.51965152 -832500.219252006
 31862.2334015142 187888.432578035 1689284.68145130
 1233012.42411802 -534266.252267893 1041268.42536313
 153812.922741386 -859138.755442114 1458842.75495858
 1551327.04569957 -295307.599139594 629426.579651240
 1435500.93438994 -655568.090696874 632113.554534036
 1581074.88939016 -613922.948132024 -115329.128570203
 -1013401.34536676 -170274.526520097 -1354261.53265431
 578155.901633544 -1440522.35681891 693275.625499111
 664927.746951578 -325635.597545849 1530304.72421177
 293700.676876655 -310559.899498175 1645385.20147286
 -522126.881230877 -1616044.71360205 -76046.0619294130
 1262694.81555283 -266240.903332066 -1106669.59123712
 262007.032434330 237712.539915484 1662782.32589894
 1697718.19967020 86990.1028868529 -13624.8489276880
 1661856.12414609 -243172.003031735 -262871.831088218
 914954.432440098 -1070814.69437401 951952.875341483
 1594642.58059426 -576946.024164571 119366.349346729
 1473752.31751291 18131.7509604866 -847186.724537411
 874444.329682907 -771294.577827091 -1237114.29888266
 858482.377665836 -334702.446367982 1428629.51097634
 506731.842223420 -1618193.63102857 121128.908917006
 1649330.40191896 381025.763477073 156616.068372756
 1473653.13519577 722956.848878610 442357.131498065
 -704380.837925845 -590390.585740919 -1430135.16544115
 1697449.73017229 31256.3214804569 87678.1381275929
 -946419.436806188 -509747.066705300 1316984.50166310
 901708.971648452 -1384056.20993542 401633.337993623
 904428.515175304 -1341324.94422408 -522356.635776798
 1656151.36253473 -305107.001425011 232534.690005134
 1481847.20109025 -678547.785179561 -483427.115343050
 1644139.37213910 228971.235580187 -366575.910636409
 1153744.71114247 -55842.2174269888 -1247298.99713886
 1057231.86091914 223148.978262946 1312427.26493991
 1237675.38557810 1103312.29020229 375315.374348943
 1225197.73055739 -1103550.94394317 -413601.057976368
 694766.415601285 -987023.942138081 -1197114.59994386
 702955.460447235 740779.852089460 1359080.14162732
 1031663.93689257 72274.6299279356 1349239.00743497
 1264321.74247628 -836099.691144216 769693.340214337
 631362.474151737 248962.698184425 -1558652.94441891
 734717.415630577 -1190905.23873782 -965367.821877202
 1561485.64049433 -669104.495240275 -63732.0090635387
 1241262.02120403 -1148331.86864724 -174935.742961879
 1322984.00781396 973993.449412591 -437092.753966337
 1581779.37067491 417969.888519387 461817.274252892
 1623614.47139086 501688.607075284 -46739.5958586540
 1446909.02961672 778065.704891700 437113.279236615
 778411.240828761 -389361.281781543 -1460299.19276868
 386548.399325995 730950.555846752 -1485359.08785917
 1305725.89448907 -334757.506511685 -1035865.48368734
 1541792.92800188 383402.063842805 604878.024567334
 1328357.30894567 623913.654352647 -858020.169741332
 389818.297868092 1096319.85759443 -1239404.88319651
 1602135.00526558 -489916.465488896 -288349.235729075
 -111943.189986065 -1068370.62285219 1317593.61505821
 1428601.39665251 383284.546056422 837968.380213014
 1658048.26525505 161336.839711644 338889.914628027
 1422458.46958306 579617.188136082 -728461.267006440
 1040790.61064060 -1325883.74492057 -220878.246456671
 993995.835187460 1266925.17850974 -544860.414866089
 1213215.84613238 -1172478.34042273 208331.111293685
 1319291.11345049 28808.3952882520 1071746.72116666
 1350017.56662868 -721845.616103903 739182.978906820
 1353304.70708753 -113884.345336996 1022544.24142034
 351831.936751915 98266.7709569725 1660288.50806331
 1100671.66423314 1032636.13018507 782422.207117521
 1051804.33344594 -435193.586115049 -1262661.54877254
 1582767.52643937 -185022.575936179 -592126.340946721
 202815.372250557 1430999.52251356 -895045.413006986
 1297977.81797268 1078161.28927038 206934.333472520
 1095614.75171073 -1037619.45099804 -782926.682866512
 298359.585432056 1418086.47418266 -888826.366351156
 988860.764054450 -1376913.26001586 127531.422426572
 1426745.40396497 -852364.230440141 -357593.024164386
 -865248.086341433 1197305.59110716 841311.518158420
 701145.318884968 -1456662.69569788 525860.278750811
 1059850.71137595 -388352.893458482 -1271179.96355288
 1255679.03408814 88380.2460161037 -1142566.88883654
 1328435.20915165 559317.929351685 901345.299533960
 308736.987450197 1442978.93491874 -844093.161896815
 -646437.465692818 -1456821.40396376 -591430.469203018
 1278127.44340935 -155180.255860609 1110094.28725443
 983025.644331951 -1335928.51850551 372767.455700513
 990618.374731505 41447.0909762272 -1380926.27402549
 1691225.39457579 -87159.1084981373 -148862.199862099
 -285783.483068501 159655.561613582 1668184.01336636
 1492713.11288364 808082.994213286 -93858.6015692551
 1039885.13951410 932225.087304321 969327.232268954
 932302.375715974 -1395687.82254865 269940.330858057
 870788.875444286 -132625.914047673 1454007.25628365
 1387850.27032279 -173511.089935817 966315.439612886
 1435836.66759061 -900266.581480298 -133765.265566475
 473594.286836158 -1481707.85545466 -685747.973063066
 1549035.91414309 698485.682681763 51043.9789151282
 1451520.23430541 573132.401129408 -674246.438757826
 1191051.83985422 1107339.24284178 495172.006521427
 1054346.92455387 1332558.55887768 -51383.3615640680
 1355982.94491861 -874022.273035912 -536092.640620067
 1560830.06233248 668864.876500683 80182.8753720298
 472362.686804056 828385.013505892 -1407356.30226112
 1333588.86730689 476036.823227018 940707.008545733
 1015993.31083550 -817020.139356220 1090979.23180227
 947024.550565220 1408838.96557702 91199.0663254069
 1207789.37722973 -1084104.20397290 505927.756877701
 331429.965998603 -1533377.13029706 654911.256522671
 850022.249431703 -1342296.63728669 -604732.927001591
 1301107.18088467 -944697.325681911 551966.544909907
 1471051.19096102 19022.3740898042 851848.896727673
 930274.551546759 724.476118753539 -1422880.43555277
 1543331.46145578 5714.91708282408 -712808.066595420
 1605569.69759207 -497640.883611799 253967.511962046
 884350.694995146 126871.512182654 1446315.13428370
 1609953.98431451 543806.087372820 48198.6278446622
 994471.720313781 -490640.256068085 -1288525.56692585
 1077909.44892539 -1174916.31219365 -589646.401887302
 1539467.24824423 719738.069481055 -44918.8481934305
 540724.293845642 -994569.177547139 -1268246.58056639
 1025588.47874955 -527568.589891041 1248935.40874481
 1547193.66310906 -301441.934567580 -636651.026009793
 1634819.67125289 464429.651726749 -40862.4654365837
 1554460.23090184 -432324.452900096 535489.456450106
 1551364.24319431 -586686.562905393 -372918.036362432
 1687004.16819999 -69951.2176620923 197797.279110352
 1479198.38421401 192085.313281557 815521.534087350
 1563014.16006692 -638831.288659754 197183.468018033
 1226489.28334806 -994648.418919712 629601.906424120
 693622.983060979 1088562.25041813 1106308.90095588
 601793.186614221 -1580964.96967662 -168507.344647319
 1487773.90457362 777472.962754193 268448.507270924
 1145872.76560547 -799515.899913449 -968374.891676391
 355485.495792972 776105.625083226 1470132.68822749
 1640655.23579438 2963.65957376258 445243.319975066
 1327561.64529124 925114.437579643 521290.087507260
 1683355.71143898 -237236.418025888 5694.79833053854
 1507714.53573349 752925.229718309 -223384.147135794
 883246.389218971 132483.615201455 1446486.74644284
 1293775.68759568 -866742.566909218 681837.072102961
 170552.079400865 -1678126.42199263 -211668.845185734
 1481200.91031115 -817178.925674551 -168114.445324616
 940516.248120722 -730148.089054801 -1213389.03698300
 1369854.91003544 -867552.692852829 510734.618540386
 259714.783672017 -647914.790750982 -1550082.14461954
 1565446.33114666 -500930.305271968 -434104.380949538
 1083438.37893083 -213887.666260320 1292444.71652812
 1554309.97699937 -583482.744086446 365606.869127988
 1072294.34680633 -15182.2364034318 1319073.28587345
 1566694.55262107 -262251.626296061 605551.206168831
 1087392.81664433 -1231361.06303964 -437409.184563143
 1625054.47558089 -392327.545939766 -308669.804307749
 876968.747321732 1455491.72540636 -49695.6084031297
 1025745.40494644 1354872.13675780 46560.2541725170
 1112467.66939297 593171.780406026 -1140422.25665992
 1687640.97857273 -152255.872030991 136697.025842351
 1571210.38802007 -643318.800654161 -86248.6944986894
 1130082.35290263 -839310.203123132 -953138.110974199
 1120984.04980004 -965888.759211704 836931.099268259
 1516125.00833518 -752914.052904551 -156478.075267756
 1396400.22837306 286561.836043531 -926255.211225840
 115151.858188983 -764364.988738454 1514095.84027778
 474426.867532808 467649.336999344 1564040.67880829
 1639291.91905946 166067.988158506 -418501.406706518
 752043.132027802 -157091.321267607 -1516493.79964186
 1079538.11108179 1031722.96827183 -812493.189794430
 1596774.66858968 8772.28207401158 583295.555286955
 822807.532443019 467252.360362074 -1412325.38612428
 1177460.47645608 1186794.65221975 308391.439320894
 1140305.76533120 -1257768.93055484 87863.9794417791
 1538546.78229999 721408.911981868 49426.5150246000
 1302815.64952087 907024.057537795 608258.779148478
 268888.546855711 -1081594.55034859 -1283686.94704981
 -295243.982008782 -1655576.81905412 -248789.845649406
 1630074.91820438 -232550.828365730 422818.960392490
 951688.357822956 -337356.244014702 -1367654.93974487
 1247579.54083911 -247873.894178120 1127875.80072659
 734801.938242227 1519412.41936942 -203597.670471517
 1354678.53216323 986737.742835636 -284946.839532759
 1573495.35982319 524786.512411393 -372439.886432671
 386633.996994225 1544256.48113499 596478.057300384
 261368.353012044 -1625951.08456181 -421864.497980149
 -907075.123628443 -1258795.79405167 -694728.629734143
 352361.313932311 648484.334452903 -1531440.35875155
 1372634.15214249 -417489.974941128 -911908.770215378
 963813.743840529 1387047.47022343 -192775.471808234
 1418703.13821764 936492.441604999 -16226.9044529801
 1686149.20754104 200045.935915795 82960.6740106012
 1458985.67082283 323926.468108363 -810205.193511178
 682802.405134038 -1545968.88453201 -183741.893976355
 1556602.07206452 -317753.177348729 -604998.270682837
 1608235.22851047 -493290.668804219 -245446.054864529
 375377.783965638 337918.230866070 1623238.36467519
 1355806.91970936 -11246.9527407609 -1025505.29131852
 1468622.22306446 -169517.471655589 839292.912352245
 524956.213511366 586743.055623893 1506702.87733612
 428836.542390116 -1310442.35095168 994404.376872467
 1264395.70300746 -246909.724041181 1109206.51566342
 1610389.78861665 472479.106780778 -270939.517927635
 327104.461127187 -598368.603326664 -1557227.56399429
 -408574.997296629 1636622.54560581 -211028.706101350
 1008713.68503596 -1124538.97070344 779685.067825736
 -501206.146391121 -954626.589945138 -1314336.51421144
 821284.431621899 -694643.466677916 -1316420.27353622
 1504157.40102490 -609217.803067382 -506324.186038719
 839589.427143801 -1443387.45324580 -318939.263247652
 1499838.17015859 -453710.829179006 659266.218474017
 958922.383766592 -224940.536301017 -1385593.59735819
 776502.711200112 1460240.01732498 -393373.399331482
 1341599.27576249 981851.288170690 -355076.655373332
 1635661.23332838 -393478.370660588 244514.011068870
 -707277.171125530 1411040.50285176 -631445.724125611
 952324.721521373 -537647.565218575 -1301542.43895225
 578383.454380947 1508663.31048562 528590.195986393
 1528104.16924938 737735.425735340 -103170.196945414
 -226128.553497177 -1093506.08450721 -1281838.64836374
 1397131.74849714 -943791.689050780 -217439.934280714
 736629.860837739 -1053330.48741632 1112596.66204850
 1634280.69844582 374305.719765524 281108.211972270
 1411269.03204054 -706420.295965061 631894.045431655
 1502508.85051224 61024.7602622445 -792933.246097879
 -228971.702242758 -1640627.66083364 -381985.389877159
 1458192.53853860 193647.036196452 852159.225686541
 1330313.03422572 -615205.587265106 -861271.917786112
 165230.927202992 -1615225.68142984 -503730.819729311
 677761.928499206 -1433920.40519014 611973.071185642
 1265698.07525813 1002878.07994652 -531266.354148888
 -200063.728597870 -719209.530178477 -1527321.89017246
 1054206.94796390 1322680.78096767 170772.546164197
 1463691.01750521 -600105.845036009 622480.184446212
 1635121.24837319 -463347.872983320 41076.1697378139
 1496218.79944760 -130450.582834732 796437.034308216
 1506047.27896137 643352.322435391 -455981.778967139
 664280.526909543 -747608.226134851 1374704.81259952
 1428567.15037551 172545.474850097 -905220.390831294
 1670466.20590815 301803.367435393 91964.0273339237
 1156304.62203674 -49376.5330406619 -1245199.41336372
 646198.843354282 1000640.48386280 -1212907.94246819
 1426935.02917541 887862.148117995 256041.458462257
 1596639.42417753 425308.570882195 399818.919882723
 1670535.69637029 137774.344390832 283423.212140962
 1631577.96767419 17676.4776398260 -477117.257640532
 1036729.68517471 -159951.015239683 -1337762.02390461
 4297.47049579985 -1697263.28653130 -96326.8806736032
 1679827.70568555 174098.067514994 -194598.926252883
 545608.758699903 339433.495405947 -1573879.27892404
 1614925.87807021 485116.440601450 216047.326753498
 1304398.20843901 97554.3227608523 -1085830.77315564
 1492592.60980114 -117898.264570886 -805150.483063999
 1340559.90497288 -628161.773974725 -835650.600966709
 -116489.424811397 810352.476819576 -1489885.59199003
 1454336.08894026 609124.940273651 635510.304827997
 1296977.28809571 100039.998980487 -1094459.64419337
 1038248.19724545 1345922.41577643 23098.3035547590
 1631199.43671841 466898.945943393 -105800.623469258
 1522293.59492179 144713.266769576 -742751.830210439
 1029145.57953427 1057001.47272653 844752.782048692
 1646225.13903057 335641.222383329 -259398.846298150
 -502562.801294987 1623185.91900922 -51943.2679443329
 1641395.03624198 83265.1174635545 -434613.915117732
 792537.790554854 -1451102.60244037 395202.590747099
 1449266.06251930 90730.3747368019 -883965.994328927
 1159370.08621624 391936.963684835 1179934.92180055
 1022688.49078201 144363.577660811 -1350284.19537036
 897188.395917094 1307921.68750456 611877.309259732
 1130147.43954107 -49085.6398565225 1268998.56771339
 1558311.69259655 203165.183840781 648373.794035374
 1496268.25640039 -490967.172200355 -640415.912286785
 1448549.44327570 165693.171776561 874214.094608573
 372703.180773155 -1656719.21604507 79835.9457172545
 245559.184961181 1341656.83652646 1014720.46381405
 -124640.044109635 1654231.25848671 371461.711149092
 1399748.92332653 558532.571914032 786603.024248771
 195444.646413782 1645527.57489717 379526.534568063
 1223051.00725487 -1175224.03067065 113994.348048897
 824389.973556095 1124742.42040487 -972283.733918235
 -647787.972759337 109509.571366893 -1567921.68048260
 1658945.95227103 146828.098036392 341086.260454131
 1600645.30840778 -158128.968287539 -550390.612256860
 732366.146486150 539665.696664468 1436106.11144326
 1286916.52046724 -360650.918223942 -1050607.81671028
 1275556.24576607 -613820.072878589 941371.967937483
 1585123.58355265 75572.5317766394 609649.093582585
 908054.464156658 1436435.50537618 45717.9288666280
 568669.087065600 1573626.30407232 300525.746896419
 1686904.72716855 94614.8535733677 188150.128726198
 1485342.35907166 180989.094153398 -806846.344817263
 1518529.25178418 763962.774671559 -20731.3866375243
 1075000.17662510 -1294397.96198208 -242710.807902400
 512595.030426482 -437966.079398242 1560587.08442644
 823291.420947401 1431211.74343147 -404752.000190573
 1536690.84956506 233104.098002473 688653.550312112
 1534713.07800318 570553.436849057 457301.370986061
 1295087.18480690 999501.080709767 -462327.560728266
 518474.234739985 -1429960.01730993 -759209.336616569
 711273.760820346 249315.401947706 -1523788.52454011
 1641097.35368101 353226.317331159 268385.253853226
 1510740.78722712 307969.439474599 -716112.489877174
 1520636.85903746 -595034.909205466 -472860.444278795
 689612.969934146 -340889.401135389 -1515990.88648058
 1420849.92140310 849060.692350179 387661.503833752
 381198.365122031 -845178.810386256 1424907.21975235
 1169240.86416500 -604355.999502636 -1075931.98085746
 1481987.48786957 475007.370205057 684164.515338909
 1699848.17055496 -21962.8649820600 -5816.32381648193
 1473409.75935879 -703223.263582301 473857.280816641
 1389535.28359982 162670.341350263 -965779.506759257
 -32381.3408795917 201838.014661673 1687664.91478619
 985100.699692884 -995764.928501246 -963342.524044018
 1419165.90970586 813573.279010237 -462673.362545622
 1339478.74510108 261004.213709838 1013742.32024127
 597115.859550740 -631721.861382823 1460951.79253937
 1367224.83706127 -787752.825214503 -632567.570532471
 1680425.91989395 -537.211349573560 257232.266935006
 549419.064655111 -1290669.16993802 960370.649887329
 1633271.74920727 419261.355464066 -215970.620816467
 1347314.00302224 -464680.869393317 -926723.619468106
 1403487.36328423 -886773.411514377 365863.550702489
 1049227.42223277 -705680.755437032 1136281.86988995
 855270.388871280 985438.996001687 1089689.19746832
 287184.666819262 251402.502122646 -1656599.45341968
 1095099.52802435 796153.065948373 1028055.11491449
 66437.0967496116 455127.363147055 1636595.61147227
 1216824.96350439 1089974.69544295 -470417.018704237
 -316667.712565808 -755559.489955003 1489580.95347560
 1693106.69518955 150639.844963618 26407.4954064230
 674811.825037804 1409059.25517636 670209.680764902
 1487975.10827336 -820764.296805363 47707.9264742120
 1029438.31511464 1348235.70782084 -111880.434083796
 1078029.37641909 -1207438.50594771 519562.236822709
 1682137.04973821 -197097.445454398 -146858.921735753
 937120.166918770 -1357153.28183186 -412238.720121176
 1457506.85868557 -844760.748268027 -228151.342468472
 874994.041330550 -253135.407792681 -1435377.26502744
 1553253.19213670 -138557.152836400 -676909.474387095
 1497829.05065098 -780152.370994402 -194603.219546332
 1507282.46429464 -785324.812861766 -36939.2898347313
 1374648.82149011 839510.428893087 543656.929833134
 -71090.3773120855 -1559926.45140427 -671993.768172681
 1171268.25860823 -946656.342807035 788652.290302926
 -22239.0737644474 -1552403.56226555 692494.479012894
 1074339.76023037 299271.565422417 1283055.18576473
 909165.847875939 -1422129.13924301 202401.018702843
 1055361.39823161 -1210292.92355395 558035.266195479
 1040877.41716429 1109152.79743365 -759180.001305697
 1480606.98648252 -288433.709932215 783969.990850342
 1581933.58725671 -427678.610629586 -452302.035722892
 1043541.67541331 -1310253.41435377 -290270.153219162
 1665903.30802440 125381.857180188 314715.042861639
 403885.461434112 -1345165.41221237 -957813.420155345
 1359017.50951366 -637621.963478217 797815.542920463
 777070.251411750 -1508837.47314240 -97833.0415153238
 1336696.67719784 1001844.28096473 315515.498615370
 1497883.36573077 -559419.411930070 577403.969697893
 1328893.98661756 962699.883906805 -444128.028678118
 1689457.10327140 176720.068762529 67117.1625025264
 1430868.72216574 -5645.52942495660 -917923.105671329
 428600.355651626 -1521276.66571929 626114.239954107
 1515846.17376140 -610893.626692649 467995.036682270
 1492222.92698422 -501653.730459195 641571.719216974
 667921.229930458 -311743.649519283 1531893.31469022
 210595.870982208 1076466.53455267 -1298795.27990881
 1050788.83391039 1283592.89400256 -371795.789372842
 -3724.52369287007 -791254.173795141 1504627.18318361
 1492530.63654307 -774785.990972284 -249116.372752674
 -550865.004037180 1227498.96500723 -1039131.38641525
 1247554.43880089 552812.286853703 -1013906.55276105
 990329.308418499 1193210.95620708 -696775.053280983
 957294.844241172 1331653.24743978 -447533.473354063
 364126.609883936 -1657361.17331374 -102789.849530681
 1051841.78385328 -187190.744269438 -1322342.04614396
 295505.670563110 -1649560.24328937 -285705.096951657
 1148968.74840321 -587104.775914210 1106877.95049476
 1152115.03243587 30158.8034805492 1249688.52063541
 1557299.28573218 585484.028033950 349324.186931245
 658513.885217002 1258507.49290234 -934086.908850070
 937195.966523711 -1079061.33447544 -920483.762361821
 -365978.258781102 1454037.62989250 801145.732658023
 1646738.68661438 -121049.961294615 404473.243711031
 59532.4844094126 1156498.62000121 1244574.95766038
 1206513.19440428 -1166983.69339562 269211.758801699
 1524853.90524545 -533358.397581979 529480.299337465
 1388576.99792368 658544.731863602 -726754.949740251
 571437.449704509 -942952.743624286 -1293947.20308312
 -457833.566355034 1167223.16299505 1148032.45306326
 1312541.32868765 -237319.511980806 -1053999.38791257
 215356.299811616 -398947.389705632 1638432.98440263
 1479651.75730793 827400.789588657 126643.635780199
 1021296.69906803 906146.153105160 -1012843.62153566
 1436995.83710473 -484654.238261464 768214.314809912
 1653242.27706526 304742.364818089 252828.132155345
 1158050.73663892 -201564.017642145 -1228124.76490054
 881998.207164008 1156526.97028276 -880070.752592112
 1498011.15243484 611130.874158540 -521997.741212617
 1101794.37304188 -892456.855051435 -937853.891288485
 1186645.77224389 1198239.47595717 -214695.061595732
 609054.105019454 -933705.913383377 1283450.95912227
 878446.209384108 887517.428309921 1153535.89959950
 1217908.01179823 -216884.243592119 -1166045.15336206
 846319.742930162 1472999.84068556 63358.9935758311
 -581970.233032585 -1577878.47746534 248213.936384871
 1662617.03072521 -332723.566088343 -122473.008095390
 1662890.69618413 -330576.394399651 -124554.325537002
 1270073.10599224 797191.609243656 800874.424355484
 1639154.99499504 -217205.375326089 -394959.146383860
 1099261.80227898 -11723.9585432595 -1296721.26490100
 1519222.95088602 -586347.234276574 -488014.903827109
 1529042.86928936 -712056.209251692 212141.129301880
 1664904.24203991 -203692.112392945 -276773.171001843
 1560596.54738196 408764.077394014 -536143.959521805
 1586999.19272960 -600993.754298316 101193.228874327
 406716.170491126 -776101.105813812 -1456794.09328004
 1573490.42171205 612974.436061355 195934.258147229
 -726938.589697449 -937334.433994018 1217770.27622528
 731740.701647756 795091.318961533 -1312396.79215703
 593528.884345313 171452.911705260 -1583769.98409352
 81271.7313192786 1308303.73736600 1082467.66070979
 1633782.85520815 70324.5290905235 464551.442400192
 1369527.11787803 464064.874413926 893889.962876799
 1455951.40520071 650084.455718567 589572.477416616
 1125393.70178415 1205922.09699120 411389.003223116
 1469380.11109108 592897.994371501 -615949.719863748
 726790.244359225 -1461202.37121290 476091.977527524
 1466822.03061507 608274.322544677 606988.862364942
 128882.691066325 1256400.48412573 -1137913.47449273
 1650463.02378121 168240.344361155 371035.030233310
 -899360.509273466 -1440110.07797131 85050.7947337737
 1115741.00535920 -611431.509211380 1127507.65784696
 1144951.22153740 -119090.887103429 1250961.25475929