# OOMMF OVF 2.0
#
# Segment count: 1
#
# Begin: Segment
# Begin: Header
#
# Title: Oxs_TimeDriver::Magnetization
# Desc: Oxs vector field output
# Desc:  MIF source file: /home/martin/PhD/repos/ubermag/oommfc/docs/ipynb/thetaevolve/drive-0/thetaevolve.mif
# Desc:  Iteration: 2447, State id: 4903
# Desc:  Stage: 47, Stage iteration: 50
# Desc:  Stage simulation time: 1e-11 s
# Desc:  Total simulation time: 4.8e-10 s
# meshunit: m
# meshtype: rectangular
# xbase: 5.0000000000000003e-10
# ybase: 5.0000000000000003e-10
# zbase: 5.0000000000000003e-10
# xnodes: 100
# ynodes: 100
# znodes: 1
# xstepsize: 1.0000000000000001e-09
# ystepsize: 1.0000000000000001e-09
# zstepsize: 1.0000000000000001e-09
# xmin: 0
# ymin: 0
# zmin: 0
# xmax: 1.0000000000000001e-07
# ymax: 1.0000000000000001e-07
# zmax: 1.0000000000000001e-09
# valuedim: 3
# valuelabels: Magnetization_x Magnetization_y Magnetization_z
# valueunits: A/m A/m A/m
#
# End: Header
#
# Begin: Data Text
 -1105958.48538355 -587470.421793163 1149667.05272713
 -1081336.80015102 -1104819.97562536 -707165.854731631
 -1213729.32316208 -1054270.17675261 -552607.930187877
 793320.336352857 391585.520113170 1451655.47715933
 76737.6716312314 389884.830574858 -1652906.87839341
 1181653.06038127 -464583.863506013 -1130423.76065855
 1325321.01082861 -1009790.29345004 -337413.368896842
 -1691629.55351334 139260.725376962 94846.7397845120
 896588.322732801 698737.700414039 -1264078.71810235
 1358041.01575716 -405940.589622160 -938582.355053873
 1343557.68357753 -907021.036562750 512021.083679585
 552025.999150254 -580000.559710180 1499622.16808036
 -314483.063764440 629478.226583727 -1547532.73466584
 536122.010585626 1320550.20158114 -926671.654292741
 -747980.482150748 502377.414879807 -1441576.26622396
 -1265898.68165267 1133999.78684993 39306.6306663091
 1541443.54495818 679046.229883647 -229886.962195677
 1582464.40728300 506884.554759855 -358990.874296774
 -355952.985239746 1538956.17250290 628419.741426168
 -1152654.07177839 -603082.632593110 -1094385.64001785
 1684512.53758698 210971.853663437 -88929.1160086229
 512559.668715623 21657.7709836049 1620744.74454251
 -210251.321865824 93311.9535051938 -1684365.53662996
 -883925.011327456 180044.858595547 1440923.46196565
 -1574074.68977024 359228.719294064 -532206.349322388
 410656.967625730 693351.173118556 -1496871.73988808
 1101332.40840067 770199.465180136 -1041085.83221683
 -1543759.21696737 -259205.200462906 -663038.569075186
 173059.088366281 211522.511160187 1677888.19031732
 -914309.379375697 -1163197.69246825 837263.093072994
 37246.2462435642 1039907.74116345 1344323.10365072
 353938.014672188 -278992.884049148 1639173.83227645
 -1310156.19567488 -946168.247773707 -527500.132549331
 -976832.012071563 -1385991.32842134 -121767.227664377
 -427567.400747307 859982.289510257 1402717.56941549
 -1311464.98694130 35968.7988971553 -1081094.73846326
 -329045.042249319 170658.033557100 -1659097.70530658
 -359531.634311464 -1658038.93325195 107906.903162214
 627753.626468271 -1567704.96189002 195516.078421546
 -275389.986852406 1675453.70678918 -83756.9790992201
 -1237872.84530078 -929533.101928765 702594.499897096
 686713.253201328 1480181.93029466 476955.303049261
 1166252.87811954 806583.696994872 -937697.693299910
 -866294.158452449 224404.104218326 -1445398.64018240
 -1535466.87362306 582406.132569600 439482.168866435
 -1648181.70305576 -403957.597912041 101564.426849825
 107505.188548840 -838225.667910116 -1475066.22362920
 488755.708871388 -1579021.72252248 -397250.873942107
 144925.461322431 1510620.24427608 766174.319749589
 1466719.26730163 784282.869295174 -351617.650092132
 294187.072199625 521050.815287743 1591213.37803533
 -741638.839046718 1225854.90538214 915014.526315277
 859628.622314698 579478.566494109 -1347309.62390657
 1212492.33239393 -157858.340533589 1181077.08817414
 991974.231117087 -980481.607859515 -971927.436308331
 -1327366.85903928 687394.598277397 809682.584586853
 1584862.36621742 -487495.869290572 374912.066453373
 190528.067277345 392345.835570300 1643095.79784327
 706370.210367499 -192696.187185789 -1534245.51664635
 -578767.870958572 1590066.92739281 163446.988218386
 283245.693183144 1046796.97584810 -1309193.63298501
 1084278.62397344 77672.2196699543 -1307022.14666998
 -470725.271110949 1544929.53514808 -530669.813127400
 822168.463972240 1221373.18353563 849874.439778940
 -1647542.96760812 400278.193219769 -124014.264976855
 1211002.44149469 -146869.750836636 1184019.57880057
 -1126822.01064548 -1180049.74543343 -477236.581401055
 -224153.938564380 1363105.08008293 -990807.525444875
 1221720.69355173 -147913.564754198 1172825.70073698
 477103.022256628 1501174.40927773 639412.307578807
 1164187.53394269 -846937.847183399 904081.671543447
 -995273.221315511 844140.101485406 1089430.44936171
 1640408.14125810 161114.017116528 416056.971558830
 -50568.3770814581 404055.963579710 1650509.50240676
 -800262.196848128 993599.782080968 1123539.00214655
 -1284424.45107703 1078016.35989860 -279525.593222597
 375644.109402392 -1228784.85329052 1113094.46472215
 -1059905.11891378 -941563.762570261 938114.502560802
 180039.363959818 -17249.1699378429 1690351.52958235
 468041.827130049 -1058922.07215048 1244837.69752097
 1429921.51545554 -762458.935661414 -513790.649065739
 -1654471.84836912 -84055.6970804991 -381651.074598757
 1035931.72229481 -907746.175685852 -996414.746614586
 148669.670374210 -290388.608886209 -1668403.96335538
 -58345.3703380405 931823.616726586 1420669.05543504
 -599210.291139570 1388703.01133695 776177.153294347
 252737.087777417 1168249.80900595 -1208849.18340517
 -11132.8423949009 -1158727.29735370 1243875.84195032
 145600.606441756 -12609.4979537184 -1693706.42791635
 -178741.597594308 701261.709897061 1538272.88070800
 955414.467073590 -167379.645669704 -1396125.80032101
 -60184.6136407755 -343428.885474566 -1663861.29617303
 -85503.8667123309 -896325.861971350 -1441974.00737273
 532214.975092679 1608005.74624714 145136.970904315
 -427013.397065351 -925371.940402752 1360641.88184913
 -335782.989897224 -1660799.88388947 -137817.014074508
 -525082.506172166 1570432.60133097 -384746.418292343
 -151795.708475721 643681.629594842 1566088.12734484
 -1268502.29631418 377987.950168851 -1066783.49901599
 1172217.98059714 -994653.514311832 725651.012837358
 779091.379317310 -1322116.53351687 -731453.685803000
 665855.818122987 1535042.60353165 -300466.695017176
 -377087.540555449 1561340.37494456 -556795.492372036
 1429945.97964427 383303.955290258 -835662.954281230
 -1034081.68063211 115637.504584711 1344359.71574370
 577434.487870560 579521.377425589 1490209.51054689
 998598.322382552 1293033.20461994 -469964.384060163
 -27969.3381598210 1326270.51243170 -1063120.05153560
 -313501.656473848 635014.375371399 1545468.68439960
 1231488.22509506 1148293.84225659 234217.854331870
 277709.024603799 -1322111.34096714 -1031939.58143861
 1337135.38611009 161497.978705386 1037298.10666283
 -479198.629052818 -1468609.26740247 -709616.441194445
 -1465950.44361178 423123.305807501 -749637.222232833
 651180.307875034 1550420.81971664 249318.046729373
 83032.1174695372 1672104.70307417 -295248.250504174
 723018.419406761 -1524947.78398397 204398.193047135
 561266.592126344 1554836.47341220 -396816.523736075
 862730.596250643 -1311457.68779384 652514.100552207
 -1577262.32340874 -580329.371041644 -255854.224631305
 1009643.06042931 -944031.428767150 989659.311089827
 30662.3606466419 1183330.85597809 1220158.96707345
 276971.087909162 1668669.96687173 -169786.801968546
 271214.288614512 -14481.9498980142 1678163.60429443
 -784719.188699155 -1321225.07286447 727035.144763721
 116204.902101450 1688124.55159072 163498.987899675
 -345549.232989263 -998386.534677459 1331848.36034560
 -644039.692782410 -1393996.10751412 729374.887390709
 -1337478.55724758 633233.695011718 836759.341988321
 -144840.641709392 1689166.05243681 -125456.111067738
 -1554627.68153863 478137.154133012 -494487.243143257
 -535002.994555426 1058053.64294669 1218316.16769375
 -1270716.38376121 1053007.22806444 -407989.766642333
 -419348.308594585 1183248.50133574 -1146328.91447682
 1102426.02976302 -109374.567888769 -1289454.94407524
 408366.314668358 1311238.74758557 -1001943.06219186
 -74829.8497707141 837971.449287756 -1477228.60240447
 -1017137.68780390 38352.7166747748 1361601.99514123
 1433194.13849317 334393.870258558 850961.398021278
 452141.151621358 1574365.16529666 454909.557286879
 346213.212473044 -1641816.47361311 273084.379783458
 1366440.71971905 1007899.24771446 83539.6070754510
 -395233.631873758 -150277.711930618 -1646574.31825374
 1129515.97524511 1268301.60203714 74864.5973481782
 -840127.305342727 -1252021.49535965 785256.828034589
 473151.611206528 420373.129089004 -1577787.68696951
 -1130362.59380121 -1039359.85430842 -729391.184335939
 -1058349.64376009 586628.931363577 1194052.98393334
 -1089392.70763444 -274715.214783729 -1275835.05176776
 -958710.760693259 -215974.350002732 -1387165.72819251
 -1173960.72407450 -719649.199348528 -996955.991108687
 665835.863824348 -1455563.86763151 -572709.725507498
 -1510591.50714252 -772114.132090447 -109330.076260464
 652061.515954204 1507496.57812230 -438485.856511992
 -1012567.92512760 56218.9310141429 1364384.70703772
 -1522923.33776719 419813.121059895 628061.661518991
 595394.242062039 1361667.19145471 -825450.274841072
 461039.323564571 -627122.845295238 1511343.66675350
 1388748.99981147 -43661.6748538696 -979525.330796292
 1060602.34737190 1292316.52416069 -308286.655777463
 1595378.67375279 -542847.660748984 -223792.994872804
 -1301412.13495055 1091804.81658633 65488.1476478312
 -565476.405762124 1479553.26817569 -617380.402310425
 -841355.779027193 -999693.636399072 -1087535.32652542
 635931.028498597 921653.309628657 -1279119.58152600
 -1050224.03245465 6986.97101161291 -1336779.96091009
 -1333090.44235737 203067.067952866 1035197.39103635
 985469.358277693 832870.288550218 1106877.24086550
 240159.115773534 1251686.60259366 1124990.77685037
 -325577.307401266 1587832.25147204 -512628.674666741
 109226.223333151 1175168.26735483 1223539.60930517
 -1608233.81560132 -545707.242160687 76076.2788902374
 -110039.562853190 -1444413.80249382 889696.612206894
 -900131.008479765 1424811.44422026 -222882.291786884
 -1513296.97133080 -151063.016791099 759679.038488614
 -427469.445866869 -1629640.69827799 -227026.578545998
 -1019838.13125483 805269.891016569 -1096116.13830872
 -1109219.68387202 468140.718526385 1200198.30051890
 803409.951956339 -1251783.79530816 -823146.268230258
 -624741.362240541 -1550461.71562462 309461.950307600
 -1309766.32633869 260740.379328576 1051915.69290359
 -943620.848151990 1343255.92153206 -441863.354671978
 -832068.870018778 -899435.741158460 1178421.29269307
 596768.274587668 -1525394.33125150 455016.220184998
 1332629.23559720 -251730.464974635 1025051.75158880
 -1539796.98779686 -248278.233736555 -676301.083116368
 -88888.8659822910 -613250.639751138 -1583042.14168455
 499679.965366058 -807974.009974823 1409786.48433619
 -732265.003539256 1182016.93521328 978071.535962815
 -169731.274066217 -458714.964955468 1628119.12203308
 1335855.74691806 856767.596680498 -609457.716912587
 -30811.5671928824 40445.4554147472 -1699239.48060990
 579534.213465670 1358231.90874213 -842226.915680945
 1398565.25819664 -535501.725432370 804520.428966425
 -153830.653394636 1301004.33351101 -1083385.36738399
 -459586.300512550 865766.691351877 1388966.69093496
 273222.027673058 -1630049.74079772 397853.699391490
 517077.790385536 1340789.59837385 908247.659827705
 767645.779768066 -1221502.65527675 -899250.365557965
 -965873.142565056 -325791.707463644 -1360495.80514584
 970002.522538338 -326116.869460588 1357476.66415393
 155693.086948939 1563648.81220642 -648661.741404375
 -1463322.92458679 511045.344583258 -698225.374903068
 -1304742.44442303 782217.179428250 -758803.952235583
 464525.169526744 153292.641880431 -1628102.49456890
 211247.602583946 1636054.24852441 -410732.207512102
 1560563.02406955 -674245.091405159 6050.17544783061
 1640154.73272342 342405.584576111 -287490.640501686
 -1021592.31817369 -1310854.32951178 357784.938543739
 -1467694.42398573 800518.215956999 -308291.523922107
 316364.695516315 1275902.77047318 -1077954.31245008
 651766.369673318 336266.793705472 1533663.99280087
 -148673.997492673 -231032.561260466 -1677653.12210450
 294976.954025080 -1674007.57904285 -26214.9175311579
 -716893.409321350 244287.244721206 -1521968.32481433
 731153.164531015 -908003.234814451 1237313.69327377
 -954719.742215468 -1358981.14876667 -362878.011349355
 -1039029.66827879 360913.353289508 -1296209.43518159
 488403.811104061 -1521941.47134669 -578926.485051501
 -307030.991884508 504666.445973172 -1594065.16439298
 675203.563082930 -1300560.50698517 861767.089224570
 760887.621712129 -871216.717894503 1245805.54565566
 -530157.711635398 231548.789603382 1598536.19252950
 804495.968090884 1261245.41480002 -807493.802435315
 -703395.688370009 1137302.45688051 -1049655.95656673
 814183.775289052 -609567.770493789 1362179.10468165
 -1310153.09315425 464403.222937045 -978687.140522465
 1450446.56859471 82040.2687904974 -882878.330206725
 1119207.91221596 1189964.24597850 470487.770857031
 446093.064974659 518124.473389774 -1556453.66376776
 360776.073878241 -1647338.35341894 -214748.629499644
 1346386.05904932 314926.721824766 -988972.062233483
 -790772.166484429 -303092.725427005 1474046.87188256
 -283417.939433823 1672181.16915377 -116122.388601924
 -1208192.58025333 -312424.037438169 1154409.76687294
 -876168.861380185 -1371438.85788739 -491409.793781392
 506737.702808876 1501596.55772567 615162.318724406
 -187070.005159115 -1578251.12406757 603430.362634525
 -297352.061689157 -1351041.49020020 -988063.076512237
 -307797.939423853 -493460.987723527 1597421.88606559
 504850.706922068 -1614655.54458322 -167371.550948596
 -100582.787509168 376906.104919982 1654637.38956030
 408994.757303376 -1430511.84715983 -822410.568775546
 479585.192646055 -478708.661398339 -1559113.87027916
 749141.776095914 1161410.48104868 989905.194358600
 1156869.53256356 -263803.572684570 -1217399.09629711
 233048.219707942 -1444922.69751852 864804.559126952
 1638946.05484535 -138750.437779306 -429655.845209766
 1699889.92774160 18521.9763004899 -5583.00605388534
 598620.170551478 282690.678433697 -1565803.26725155
 -582229.930537517 -218396.751035032 -1582185.56658934
 -757507.365787487 52471.2524633409 1520996.17305325
 830395.725300468 146007.868014460 1476185.84259590
 913081.921589111 1415233.72080008 -231073.408200706
 -411513.497452926 -1596061.57140621 -416226.022365722
 773870.040388625 -100204.962973960 1510325.83437624
 -551685.667541306 747368.286642105 -1423756.85015074
 420004.965913364 1537053.83215461 -592504.300125266
 1389901.44734132 929671.321111067 306406.921237292
 -1088944.72092351 -198945.430797559 1290201.57740470
 -1699247.79506242 -49917.1005098469 -8075.52179032218
 -138755.247201410 1557153.48986251 667847.280733473
 -793947.583999409 632461.050855092 -1363686.27367616
 -368844.893048928 1659189.52124048 32304.4498095684
 -1445279.43312983 -632407.091207672 633426.105526257
 -1338883.93997878 -975968.755644909 380624.202162486
 1285374.48541806 67413.7832229609 1110525.91778302
 571434.299594755 -610016.755967568 -1480318.34369687
 827520.410604571 -1401672.94170649 490431.375954595
 -1576702.74820268 485959.380490389 409697.356988683
 -1123104.36899093 -79641.1325333457 1273693.00318495
 -316493.380688933 900549.146263966 1406713.60807498
 -1121132.56841906 471024.648737156 -1187938.35880155
 1497338.34791715 227128.655754426 -772263.197097946
 241316.195508128 980906.857226010 -1367328.86725633
 902231.045139857 175927.292024483 -1430045.00946885
 -1375578.11487415 -736023.995705521 675317.353268046
 -1001538.89140437 296407.798631979 -1341291.26811243
 -288740.600477724 -1333473.59425565 -1014138.56994923
 -664735.702790349 968313.061255486 1229022.48182767
 -99364.5323670487 -1633735.10808885 459386.859090893
 1165144.89790743 623194.994738822 -1069609.91273116
 -780863.640789105 1469443.95328348 347831.054755341
 467438.215354256 -1516855.69308275 -608810.579071084
 613913.631438584 735553.557702465 1404304.46018132
 -310512.545745307 -1367581.49870899 960886.467447451
 -1675027.46298554 23668.6364507128 289348.913757761
 708342.520598928 1143207.58720115 1039868.87927146
 1253348.83814439 1132993.86656437 -188259.364307916
 -150757.620624104 592748.153413347 -1586165.74368785
 -1337389.95124294 416522.920382395 -963273.987560403
 1153799.64418365 1086782.00729811 -614533.359301817
 438710.116800417 -1179252.61913398 -1143195.82473110
 1554773.75580450 -44940.2266923490 -686045.876225787
 -484650.276433630 392615.944497832 1581444.53891968
 -362261.952294168 1635506.69735681 289627.555355216
 -789303.825181487 -634648.713624279 -1365364.59667333
 463935.171993679 270900.265834479 1612878.54538338
 -654022.724606261 398774.175134356 -1517640.74567880
 845722.270658630 563481.245392458 -1362806.92946689
 826203.540694636 -1126589.75416753 -968598.593406155
 531927.243851516 -1611440.55746956 101551.646912954
 1168891.83934246 -618868.635543488 -1068032.52752860
 1115697.40375473 1075514.63852619 -698918.854782745
 -360033.930420735 1538367.15120500 627536.514506695
 -1061767.89233402 1126073.55567912 -703283.221759737
 -296964.320140499 -1484329.69177667 -773677.942475857
 -231595.391516933 -1650843.07731709 -333287.726600223
 -1684774.46388491 208179.016781845 90534.5393374932
 668941.037532015 708030.996982234 1393273.12312336
 -720705.926664573 -528655.117162057 -1446065.95090574
 -556969.298282728 1604687.25998604 69021.7241811340
 -912330.282269905 1354070.94911081 473439.880900897
 -101149.316634580 486272.414571980 1625825.31490031
 -660220.515594562 -1473953.94972391 530630.403276460
 -91504.3980557848 1547360.72468728 698070.005681157
 -1479418.99985587 -530019.202314569 648381.884419430
 491046.258493011 1029085.47400684 1260895.18168963
 1095911.94435092 1056220.02993955 -757216.124091059
 642711.338541909 1258153.70538659 945500.602290487
 990979.534541780 733785.069290812 -1170264.51463130
 -1262633.16407210 529124.272262982 -1007861.59639479
 1636408.15700547 -306979.790381217 343411.927549807
 354780.207237755 -1653301.64013025 175284.600849509
 -1405264.08193975 947235.294229646 134082.651285317
 53615.9611713187 1697736.98474201 -69386.3051818234
 1711.98763690015 1454944.24756219 879280.561359136
 -812354.704901241 1145048.30880887 -958615.774916501
 245837.126617626 1682074.34286472 13784.4931939000
 -559312.438178430 -1574436.27955644 313560.198551063
 -1131340.53017396 -1038477.27707457 729132.052364658
 -652702.210778330 1382458.16404569 743497.981643856
 186109.107095418 1226767.62466465 1162069.10092765
 -1339528.66806646 762111.319291419 717529.988527296
 1083973.86248815 47661.2883992487 1308712.75191718
 1638235.07879955 227960.846257459 392708.134833246
 -1091414.64236891 -947781.021329320 -894720.746395594
 680293.321183169 1095332.35514952 -1107902.53583796
 1145756.36000383 -1187033.97091339 -410113.051984899
 8118.89378754266 -554539.840155858 1606990.86781586
 -918764.779896939 40056.3726786053 1429778.57244706
 -1628051.92052786 -292053.530018662 392621.547637406
 -786753.055966974 -1421848.20463870 499366.911090768
 345271.706405836 1073275.43090500 -1272347.16102615
 -601248.527310134 1581892.78740435 161602.653336815
 916908.898864353 -458871.274104352 -1355992.33957468
 1032530.66680904 1091682.45540148 -795053.355862031
 -1406146.86788798 -761330.026143582 577172.051663136
 -991648.696678813 -1153660.62252195 758748.990389764
 1310480.09778042 -1078511.89617683 97231.6981570039
 -510435.595137352 14092.5196197199 -1621498.35155869
 1538142.16814571 -634181.468824138 349188.394956169
 856465.038288837 -1256816.05729493 -759526.850292021
 -377128.565038370 758780.695044959 1473779.46187996
 335658.487889510 -1206047.77849686 -1150122.66106295
 1258845.73491241 386364.203579629 1075188.41041238
 921854.147241970 -1377846.46166568 -376462.560274111
 -482473.564735818 -757030.749881747 1443649.43911761
 1484629.70851335 343466.764583725 -753594.858147241
 1667233.79522655 255480.332981799 212276.403573192
 1006118.28501420 -160953.939386881 1360815.86776313
 1064874.39606971 -1321079.11057698 -103886.977972695
 1387825.57725545 -607161.747488826 771553.484537462
 -1578081.79737912 -629179.136746424 -61574.7891893713
 47073.3362327768 1442858.24087693 -897743.948879334
 600621.742350712 249275.346951295 -1570705.35875380
 -1431110.96737081 -917548.455129424 5121.67556442457
 -1107562.71353292 340360.807938277 -1243969.19415684
 94835.7018035507 1551512.64753544 -688341.989276411
 -1312220.10506470 962924.839077053 490768.937640132
 -707184.901997040 572294.732838323 -1436094.79253737
 -96211.2179741203 573162.039193257 -1597569.61612437
 -1267886.03318669 -608370.360545933 -955170.409539225
 -1442207.17115837 689732.567052615 578193.273401183
 1333465.74670044 781250.999806597 -708177.927979844
 679746.513325113 223331.626788938 -1542098.46057188
 -1369388.65854461 -577211.325150245 825591.780462778
 981636.810246423 1223353.00785731 -655588.736126324
 -333865.007169078 -608200.567352229 -1551974.94401824
 304062.067801016 -647358.309853380 1542230.03394057
 1101889.62402960 1291387.99388966 -90312.2676802290
 -39813.6095777217 1505689.99571511 -788233.793551007
 447245.874336837 -1640003.63582464 -18952.6349257331
 -1612764.23352110 -462987.921885405 273191.711556791
 686150.287233874 -731355.036436190 -1372704.48167415
 -535092.045907534 185444.569848179 -1602899.50212741
 1106848.48652004 -1288900.02932583 -60192.5434929864
 -1524551.34974332 328543.422601939 676610.967588326
 299871.552491179 -117341.199893122 1669223.80009817
 -467175.737347936 220823.870041729 -1619562.79558812
 458260.398830998 389986.463834705 -1589939.61045348
 1050324.37319651 -385144.026062728 1280032.33953582
 280372.104834946 -855211.965297054 1442221.88904592
 -1466933.16383781 -264062.817378904 -817543.834488835
 -189914.921260028 -1507400.72818471 762676.449977973
 -197122.002881509 -1532316.38386041 709330.258577021
 938413.837978444 -84287.7931779085 1415017.68067108
 1189107.97497779 -189224.416269247 1200090.14000274
 1158412.69589679 -583812.181633133 -1098746.26850874
 705347.239699964 261227.920764349 1524547.55414870
 642973.311519620 1301396.06974261 884846.647918143
 1369825.75744482 860344.312166081 522862.370767115
 -72259.2075841275 -1682413.88635380 232942.314582866
 355387.089437849 714626.143261336 1501002.82878758
 -51761.6823926642 -1347242.48603823 1035499.11252952
 -903311.905712063 1440124.14061684 8370.22170829815
 -1455681.34291557 772042.298684124 418261.302214378
 137209.223417144 191553.865245132 -1683591.62082701
 -877208.853983853 555099.047825186 1346242.79890215
 432887.049905164 1635069.92339467 -170748.785162778
 493368.745092264 1401121.61637822 826707.625151578
 991035.235955094 993688.282667522 -959391.868833951
 -50895.3394114331 -295405.824311154 -1673363.39848499
 770037.997435955 -1067481.05049406 1075883.67835046
 -355992.086757021 230074.521772243 -1646309.61504744
 485555.229484479 66932.9474935252 1627807.14449228
 1156109.54661027 -1122223.72528657 542240.377176529
 75580.3488677709 -1416782.54595952 -936490.698474624
 194970.928108464 1544994.56954751 681893.039457968
 -1171400.28847154 -173246.758376763 -1219756.91220863
 804109.918606720 -973242.604169406 1138510.46206341
 -909825.943484468 1423964.91820530 185851.188543889
 1307761.41348284 180041.831253919 1071141.92542543
 1629436.73320421 324424.600593645 360117.496123756
 -74726.6022916708 1677936.13602087 -262576.195313467
 922904.262138494 1409283.05673821 228405.317182414
 1296366.61557795 -461956.405495079 998012.964563603
 649804.246014687 1087610.78447219 1133515.42705032
 1604117.39274182 274617.350092828 491317.312264861
 127441.882797441 -765903.395465614 1512332.81896654
 -235978.176755631 606878.754326229 1570354.25227639
 -408897.727488453 -1630323.62829063 -254651.753365390
 -894099.268796788 1428915.92068388 -220875.053261308
 470613.881367355 -1631559.38677209 -80848.8843474574
 -435311.246273959 -729849.168786259 -1472353.32365890
 1682344.86297371 -244368.062220143 110.420677142916
 633189.226530117 1399844.44188866 727672.276453907
 889749.204983049 1038425.03151456 1009960.29929697
 -1331244.42012525 1036448.87085340 208715.193486491
 -1697972.78358346 82328.4235225688 -10509.8472928318
 1031915.36064124 -261961.241013029 -1325340.33239752
 -862328.266211025 -1451597.54428074 -198127.561766718
 -1479500.46618738 791133.350404602 -274201.372040561
 -996449.476454790 1349884.13779690 273680.937219429
 941421.066733492 1065110.93315130 932343.861025498
 -820850.655408555 -1419309.35161754 449182.775634086
 1476629.07826917 -539730.460021051 -646728.378637737
 1127784.52051922 940248.289388192 856758.559676996
 -82447.6150935287 1022637.03921795 1355513.14150212
 -1112664.38697863 -1280342.79388437 112695.572663062
 10898.6276026362 769905.099361337 -1515627.71084913
 1508274.04965575 -612292.293636854 490109.720662589
 1023986.51636644 1195917.06974498 641275.273647986
 257496.574294782 1057682.11235571 -1305758.04168659
 769900.477862873 -1458474.35438765 -412438.858232413
 -385163.519016741 1307458.63472950 -1015972.92389606
 -1158443.00209666 -599506.024685178 -1090230.40558382
 534644.144983220 1097640.36864312 -1182937.55513981
 810046.685738745 1177305.43201234 -920747.678073599
 -1446565.16592373 743642.159436588 494414.360071130
 -1237775.16686261 1075442.54013375 -448704.779525360
 -1452328.62936166 -883024.644332905 31765.2300043357
 788351.179319183 1491382.27551036 210431.286551197
 -1052964.10476851 922552.329970512 -964449.994833860
 -64381.3208493073 -1647200.02800081 -415436.051974086
 1198426.38256730 496286.927723044 -1098850.98668467
 1162334.57725684 253685.217349343 -1214340.20810133
 1112086.07192529 1133492.90449328 -607007.746320563
 292964.878612229 760017.787530679 1492161.03103408
 -1529745.14076878 539534.634719360 -508706.381159660
 -1447686.81153909 -180068.636223948 -872799.050150854
 -676998.710360813 1377352.30905220 -731145.240645372
 1594252.86949355 -584675.063701834 -80702.2799978203
 -105592.652625460 1475212.46083212 838211.421490526
 237173.353496672 1476477.37165478 808556.350159060
 -897391.827800774 1442602.86884954 -59873.7854445943
 -1606307.67049011 -506351.300771852 -231049.838630769
 -1297088.29399481 -1071594.34389294 -243408.134043005
 -1558105.90185655 205142.521530416 -648245.743881084
 779535.349487144 -1502014.71437945 162100.082318254
 1231898.40250168 342719.555139707 -1120254.27133247
 975296.744621505 1237466.21695605 -638336.605423177
 171000.328843483 1623734.29823568 473546.002272760
 -914607.677349887 -184750.409348271 1421041.90043021
 173375.771329285 24621.6757239654 -1690956.71588616
 -1025693.42573934 -991712.986480336 -924369.162640858
 1052979.29826507 645502.629621995 -1168144.23449174
 -245563.424256490 550778.974623511 -1589446.79866301
 673473.238317583 1529434.92872843 -311869.517676024
 -1094666.54956746 205751.842528611 -1284278.52296694
 1066123.64301068 982903.247050767 -887288.895879294
 -324964.407086352 1491866.13777730 -747484.823311111
 -1220847.32062011 1138281.95141222 -322251.483819523
 371599.099691467 -1086794.81233101 1253312.07007628
 -1052541.08372160 -1259328.96016135 442998.687556876
 -684942.593472400 307916.469767666 -1525136.41727326
 -1590064.62651108 206114.540867598 564987.857888230
 -84734.9387616160 1441086.45375908 897825.051413221
 131406.024732446 936488.793337001 1412699.96694918
 421508.272537094 -334771.721473171 1612531.75803910
 308192.396834987 -1671390.08293942 38374.9551772531
 335890.100761424 699703.167245183 1512479.19587594
 -383499.412690763 -300332.450054748 -1628719.93292584
 1647609.84960140 16555.2592249938 -418458.727819668
 -1229239.78620652 1108563.12865699 387372.350315791
 1211864.67410789 1035105.03700136 591558.597286700
 -432624.294537707 -1344300.26917977 -946410.590631234
 -1670059.30503825 -307397.116574506 -80055.7953981920
 1331722.15309537 -34175.4461044625 1056100.44306335
 1159895.65789882 102510.070829036 1238601.52921191
 -807402.335665888 392168.726436469 1443712.28379011
 -1646521.11820818 151430.683564777 395015.133089353
 50430.3188410828 1489744.12010807 -817385.612514090
 836340.269327730 1221186.41079336 -836204.941383660
 1513145.18686009 622368.100852076 461572.952548059
 -964382.715339376 146839.356986516 1392265.84444008
 -823529.806485121 -1287566.12162109 744293.047316846
 749764.673373425 -1350753.25673284 -709449.486564664
 424813.247189703 -1402264.32771707 862083.789561283
 -1463505.33107126 -809251.342470824 305392.224254605
 -1602496.19647526 451043.825260064 344333.280379761
 -94742.7812172751 598042.361892962 -1588511.61115955
 1436486.08462303 -471073.366949138 -777558.751243658
 -30079.0044764440 327858.537016745 -1667814.14827760
 1589121.20001165 45826.1799264551 -602157.598064559
 1071419.03120574 -1076306.05101405 763954.543229294
 -1609907.33298507 -501925.844876112 215101.895496734
 -587003.540178643 -1208645.83399087 1041442.31323403
 1214713.11858358 737427.347584022 933098.572807908
 1300731.27540648 -990371.943078224 466113.251842182
 -72462.4854798022 1197368.23779555 1204598.89229423
 1429365.30946693 -781935.660202489 485274.597930072
 1156740.86564625 -693871.750032393 1034646.10580186
 -1397716.15064264 -180083.926149380 950767.764375375
 -760305.862057786 515596.218335417 -1430417.95841593
 -910016.652203231 -1422567.34893584 195376.125600069
 -1645150.59031154 156096.667239480 -398890.167432487
 -1478708.23830992 263027.434147184 796390.930912898
 -1365382.62354587 1009649.36720385 -79614.3619195411
 -1141596.13985693 1174397.59146645 455574.967070806
 -166962.736814212 -644779.005253971 -1564091.90231879
 648262.732675111 1555211.74528735 225990.833320427
 228603.246313498 649309.818904590 1554392.90877468