# OOMMF OVF 2.0
#
# Segment count: 1
#
# Begin: Segment
# Begin: Header
#
# Title: Oxs_TimeDriver::Magnetization
# Desc: Oxs vector field output
# Desc:  MIF source file: /home/martin/PhD/repos/ubermag/oommfc/docs/ipynb/thetaevolve/drive-0/thetaevolve.mif
# Desc:  Iteration: 1325, State id: 2659
# Desc:  Stage: 25, Stage iteration: 50
# Desc:  Stage simulation time: 1e-11 s
# Desc:  Total simulation time: 2.6e-10 s
# meshunit: m
# meshtype: rectangular
# xbase: 5.0000000000000003e-10
# ybase: 5.0000000000000003e-10
# zbase: 5.0000000000000003e-10
# xnodes: 100
# ynodes: 100
# znodes: 1
# xstepsize: 1.0000000000000001e-09
# ystepsize: 1.0000000000000001e-09
# zstepsize: 1.0000000000000001e-09
# xmin: 0
# ymin: 0
# zmin: 0
# xmax: 1.0000000000000001e-07
# ymax: 1.0000000000000001e-07
# zmax: 1.0000000000000001e-09
# valuedim: 3
# valuelabels: Magnetization_x Magnetization_y Magnetization_z
# valueunits: A/m A/m A/m
#
# End: Header
#
# Begin: Data Text
 349384.321128036 -806197.601925597 -1455326.77526366
 -1336203.80470495 -768765.388455358 716630.427629960
 388136.686507322 1618437.70954162 346423.574429886
 1150719.38924467 1246598.19359935 -108801.796544047
 -518479.477244791 121677.155925370 -1614426.74079745
 -543135.084298521 -1560158.43808877 -401135.797784788
 1451351.92609067 -597873.684427792 652782.233291958
 921761.134565436 695130.313463325 -1247858.26843797
 1632990.56857081 -3062.82189063930 472580.598502348
 117535.700850852 -825431.640173715 -1481501.92926828
 1061842.08075774 -893630.557876555 -981792.147840524
 699293.124348674 -984970.209609893 -1196170.05999135
 -156766.409896251 -1429968.57671310 905877.564763233
 -877933.153939344 1439526.30949792 -216788.794630630
 -1146519.91080808 659210.233492173 1068145.10352284
 -32901.3737569413 363746.508072172 -1660302.97761288
 -656119.581547756 795184.965525614 -1351735.16833425
 1441302.99562628 -750964.608634888 498696.131302996
 -237969.238295341 1656184.51747522 -300704.981170093
 -1186533.20973724 -1146706.94254542 -408903.570672566
 599537.872297341 1548466.48767140 -364425.405590447
 369479.496691713 1094408.77509078 -1247298.81525188
 1188339.41155341 595757.246423710 -1059680.49254600
 -486736.362069644 593092.489175533 1517013.18818354
 672375.638587188 -695247.329053460 1398049.40974148
 329404.304463218 -978993.080709688 1350209.37343942
 -509154.384971044 42630.5493349356 -1621402.00090174
 1178569.27893178 -609137.240198135 -1062979.90449585
 1006945.65256274 -1229111.27978241 -604438.511923781
 1051138.96503509 -1269546.90625528 416362.256938117
 1435005.59938097 -882555.552364272 -227716.109962075
 -993232.939044614 -1198653.19162364 683168.247950136
 -1420238.71590200 -816454.581468130 -454228.913932994
 -101436.299881799 -1173582.04638512 1225730.74427821
 -848931.303404824 108283.014608649 1468873.86485248
 -19925.7492262708 -690575.262500431 1553289.66111934
 -146909.571225357 383022.950519141 -1649760.89093480
 -954608.246442851 1356578.88907991 -372044.101587455
 1111858.85266866 1081615.85750405 -695612.700098340
 1401086.95090513 858577.706937495 435660.047690084
 38994.5781186975 -1639466.16176444 447917.545209735
 1243304.55683596 -780105.043098241 857688.696837984
 1620704.61295433 339724.169967483 -384582.950595135
 520777.334330339 -1613439.58257221 124914.696641368
 4683.99924790525 -1662239.21096887 -356284.809764104
 -144874.351485036 -1634884.66777492 -442903.539561710
 1052625.07445284 -1334723.62492417 -22210.3062212739
 -430392.896848211 -138285.931669201 1638791.91950808
 -382786.641542087 386413.913328367 -1610639.21305896
 319213.234823300 -162020.354918935 -1661882.16047516
 -1362848.09889460 13521.7354015759 -1016101.48214196
 -1312097.82462530 -1020626.61954661 355978.373059955
 706756.193944015 502375.682150422 -1462229.24204985
 -133088.614963332 -887080.567777197 1444082.92242490
 -542818.552582808 -1606570.51518962 -119495.601154502
 -188436.816148967 1051830.24623664 -1322174.23187015
 845930.190661035 -98465.4293899773 -1471294.21658050
 -942362.788322394 -1400226.86800754 -203266.065281518
 1030365.84704690 651352.693329055 -1184941.30239953
 -1387999.30080210 -478242.283064685 -857171.079576274
 -919606.545916233 265716.915844343 1404890.85744843
 -384650.909246904 969804.153578183 1342208.47178001
 483922.951826058 -1628575.48908102 59669.5320952773
 -679643.396046017 -1493104.87083350 445783.242063120
 -502323.702029668 -1420339.88631774 787594.759831543
 1420346.21622082 -117351.104103999 926739.091887667
 -660943.660523877 1028463.08207105 -1181277.76853297
 -216908.800973333 -108126.883497763 -1682634.58573909
 -190345.540413201 -1058330.54634961 -1316702.33154960
 -344665.234151274 -1569443.40349688 555025.476521195
 -1082540.71417530 -885402.431462264 -966523.738204881
 -717885.510674899 -23969.9155043592 1540800.38834164
 410307.172600574 -119726.944628677 -1645391.58951370
 198871.492529357 -1683506.84762421 127494.405608784
 498290.223825249 -1308095.88163928 -964671.973926132
 -1113837.27612776 -1238154.66840116 -341085.824133331
 -188134.551539943 1513905.50439327 -750130.331532210
 1346774.50225015 659401.191348875 800867.347902594
 -197792.835387309 545462.318493538 1597920.16489345
 1370141.64093123 -92132.3835786236 -1002109.52878535
 454502.980327897 -1426569.01020674 -805188.114660674
 -1607942.21436491 551830.512464986 2218.28219420151
 1561069.37236493 616323.150368290 270570.118424525
 -283212.879923923 1608649.92756294 471206.828470197
 276655.245893181 -1267939.84009155 1098084.89509163
 -548482.778804978 -1585003.87625560 -277361.413338440
 576769.332884521 -550852.705068131 -1501298.91559378
 1166797.99285052 1170785.24739416 397296.297949290
 1510050.92217785 226179.944333619 -747388.015164197
 -704157.778963386 1033718.02110113 1151342.20593884
 -855165.392717099 1469073.29173718 22711.5522038006
 -774353.299726596 458710.948036419 -1442207.07020665
 -789151.306722415 632156.266827532 1366608.45504811
 -618141.701624266 1420722.14277573 -699606.624997081
 -812023.375933424 -935577.945285858 1164178.65692186
 1595940.79831121 583801.827455238 -46350.7771853533
 329075.693305226 1595615.96220326 485508.897176806
 110605.375519111 724273.344073082 1534012.57295091
 -184230.252845750 518918.207205933 1608347.94375053
 249265.925895826 763510.340330640 -1498305.19534422
 269281.369934801 -394441.862192421 1631533.99019334
 1267857.38963353 -722160.624256435 -872365.561175585
 -110920.519913170 -761300.997608146 -1515954.29657461
 1064775.46079469 544146.636945585 1208369.83394583
 976901.671265747 1322030.07064653 -433473.894236464
 -990289.730864608 1371647.85320303 167058.120867037
 60435.4664818765 -1369033.73293907 -1006028.92228108
 -335007.000074154 -107356.276090530 -1663203.21665312
 -1337956.73445924 84809.1641619890 -1045312.95906504
 -101234.575009576 -1636699.84249793 -448291.407892086
 737938.886541813 484892.011923248 1452696.09227204
 1025766.69506656 1344341.84865444 174778.949672394
 1056246.73957811 1323279.76013845 -152556.551935816
 944551.302629523 598365.843193664 -1280539.39978433
 -553639.051447529 848983.169814536 -1364811.84713643
 425974.625969094 -914132.658489207 1368541.96161972
 338420.812300274 -976904.042078516 -1349492.44027993
 -1397122.69293460 772025.207681690 -584829.256784589
 510520.010443363 -686709.743513639 -1468944.87544643
 -263326.519276941 138775.616558460 -1673738.47195263
 -309715.542949931 1396994.20229888 -917868.989125648
 -893322.657580937 363398.233355050 1399970.12591232
 1096238.54995733 855999.130937202 977510.373050944
 -1649298.56526082 -378488.605391730 -162974.286981841
 -101358.499849386 -1452493.89148134 -877489.572426740
 191748.832680605 -134155.139168462 1683815.54328267
 -671598.109223539 1344432.97515093 794642.029478801
 -776448.607834496 1406148.72900981 -556662.654842196
 -282872.843985730 -1166564.48221067 -1203789.95799931
 -1129321.25631375 -1228304.13295157 -325426.576990906
 -1294070.69905358 416361.137329663 1020795.97823097
 -325205.066266789 -1624339.69327267 381788.194858418
 -332786.680691758 -50419.6634631662 -1666346.56740140
 -1087937.47215278 -1057353.57950935 767069.400109646
 -47041.8235889831 1458841.75524240 871531.869752738
 -220142.998736000 -1677347.26884350 167461.039680155
 -1026158.32550056 270047.119575582 -1328184.34120224
 953351.174168816 -1258434.08463839 630448.406557814
 -428873.842036442 -413510.579885578 -1592192.27103374
 -740274.383581580 1030006.90179795 -1131847.87814507
 -488905.241876200 1623128.60723400 -128160.792930513
 1502945.12492327 -774094.711906916 178698.988433410
 423861.668336604 663046.304821226 -1506887.81393235
 -1267819.52708747 331376.419027097 -1082969.67439005
 -437606.030476477 512979.473777362 1560561.76474170
 508448.651117296 63333.4890130182 1620946.89559727
 414039.242392794 1648602.20881117 -26120.1619773687
 687035.138187358 16166.2356995216 -1554902.36726271
 -673835.597041180 -817010.703421690 -1329826.71752922
 429872.612957054 1110008.43564720 1213709.52431854
 1593439.15010996 -485793.498142033 339052.137671715
 247571.578030174 1410612.63459726 -915904.093705358
 924582.202488888 -1203364.45183796 766199.547698593
 602078.980902422 692728.342671314 -1430953.64845104
 -401405.438139633 528180.996593765 1565215.16382546
 -18248.0484457448 16839.0999331927 1699818.65310431
 778500.855126043 800726.756350335 -1281707.09611545
 -294012.077449602 1642102.34884024 -327195.315136289
 996513.272095861 79764.8328641517 -1374990.49813988
 1050496.69845488 -1318223.01830648 220782.156304276
 237674.124881612 1590748.27991887 -550482.443223141
 1592363.07846739 505446.331864087 314489.796239846
 1119692.63671250 -757406.383092652 1030836.53900234
 147547.822991052 -503387.205413055 -1617043.89592770
 1144807.64413730 -967459.834521319 -802145.202885848
 142898.666244798 1666321.11399292 -304883.446987304
 -628530.108236503 -929267.491517405 1277267.32998584
 -648897.791332772 -1568404.78971140 95068.7751776716
 94072.0367081763 -1507546.81350019 -780034.010165585
 -1182644.38645299 989836.236271290 -715245.748365921
 -647155.159870108 805718.783843184 -1349817.55819657
 393982.210387922 525101.086547776 1568134.83693342
 1591863.27148883 196866.080576036 -563218.493307458
 1214297.52323436 -1085823.49421185 -486280.643748516
 -488594.890583669 1492544.28753369 -650835.296097311
 610589.716078147 -1577927.50397987 165302.724730874
 306535.871491234 318143.343171547 1641590.86641122
 568841.964264180 868790.959940863 -1345964.74233804
 -964099.442945662 -1204938.38728361 713187.035049170
 1184511.19609648 1201092.49042749 -210499.538623681
 1078438.56557407 1307357.81194443 133363.457627728
 -1558275.06873270 -134811.130720101 -666036.612507207
 310212.651610779 -1487213.67827633 -762865.378640555
 539439.585797987 -1609426.38854027 -93550.1637856553
 -227762.504102697 -1681260.41469777 -107180.500535979
 -617998.925721305 1409572.09519042 -721930.631202065
 1250628.56693854 928573.779185324 680939.736075628
 1365189.96828673 778068.194323832 648742.040776547
 245072.062555902 -1178189.38473249 1200753.70407851
 1680713.17736201 -87053.8818933879 240051.738358617
 1347070.31104812 -836295.106111549 -613198.232700159
 -1461026.43999996 -868528.109399083 32567.8492490898
 -344957.750447434 1623115.54167720 -369459.184176231
 -534210.068605547 -573778.952276522 1508442.01629526
 33568.8635370829 839911.897097315 -1477640.39485770
 -245601.376800589 -540157.804531766 1593081.76498166
 567394.547672478 -1602447.02128641 -15065.5647703654
 -27835.9141943998 -767532.193211652 1516614.48439103
 658888.337738206 218013.188047994 -1551881.57029773
 1348439.06007541 -375767.653504937 964629.862611730
 293661.894964420 448826.196276029 1613170.08929074
 212509.522607971 1317895.96891768 1052611.00028048
 1556002.61297750 -145066.665067413 669187.216773770
 1391235.48008243 802474.348399122 -557224.155184634
 -863612.667781467 -1368968.25068201 -519710.581643311
 1633548.97734471 -470653.421825086 1759.30110509617
 1135322.61799152 -1153949.24498029 519079.659673067
 -304134.218875589 1523995.28535541 -689159.449709149
 1237395.37083556 59635.9913476772 -1164171.91375274
 997469.998589737 -1296449.11492011 462896.634613232
 -1693169.39006031 127729.904188247 82840.1360383635
 -312371.012702235 1418020.02697275 884106.075947664
 170809.038764170 -1553994.55075803 667776.316209847
 -463310.003305427 -614621.184515365 -1515778.55915106
 251103.356963441 1680948.48477729 36868.6268612895
 1222288.71206743 1176916.39145520 -104298.187312238
 114935.925909243 -671444.506877770 -1557546.79130967
 -960488.495001359 663036.445034693 1236060.08087220
 198662.782667395 -1644500.90945955 382295.510789177
 -967124.291486929 -1157066.50295872 784772.395377656
 -616001.161924809 1171204.80656446 -1067155.97247431
 -1647971.35949639 -412119.616369279 65938.0018142827
 1026298.37951954 539232.819125511 1243358.19576401
 1494858.13562153 705640.212032128 -396826.215778863
 1467139.90473861 438578.304200908 -738342.448331284
 -23746.7109749805 -936932.025719851 1418306.90363488
 884436.210996307 199177.560969820 -1438089.31846551
 -525883.970823529 -1581363.53257649 -335760.967159811
 231070.500365609 -380006.788804461 -1640792.87672860
 -200609.195281542 -1106339.83606515 -1275056.12343294
 612690.317820705 118594.671192224 -1581311.44257340
 228634.199049690 -965875.198310564 1380149.08771242
 -117614.378196678 1251717.20806264 -1144277.45284143
 -1504871.72024781 -54971.0496912647 788884.839057166
 315370.797823956 1424954.35510016 -871806.369419813
 -277781.767592410 -969151.497750274 1368788.75799067
 -929371.459424788 793689.647115648 1181662.14903757
 -929845.069270080 -148453.178268470 -1415397.40038482
 869047.785968871 -447891.036644424 1390737.05818037
 -1501490.48901875 -294195.887130697 -740928.533248394
 -736460.657036198 1462270.67912434 457591.697489202
 -1218641.06172595 -440709.971312549 1100312.99358916
 -609695.213463370 -1407028.12147680 -733855.307300651
 1659614.28578659 298499.187256833 -215820.892455001
 -196950.010818252 -1193345.87115344 1194628.11160617
 532891.247898139 432359.109510941 1555343.21560756
 413146.649050293 -1124866.92612700 1205812.69062990
 1623818.70063202 155773.643919005 478484.481815169
 344644.401782562 1339317.77129776 -988659.771511889
 1646398.13534238 -42375.7061332644 -421399.429841620
 -770640.446590766 1430436.92261363 -499963.511170611
 -439674.715845275 1612603.94987229 -310152.615824334
 378944.797704227 121695.390280797 -1652752.57442768
 -1032991.22764846 -601201.382780467 -1208919.36081121
 653852.660169786 -1171356.28238918 -1044222.75329371
 808860.118694990 -495538.121650522 1410739.97546529
 -163543.689465218 -1691700.55510484 37452.5499008783
 1424884.42429486 -29484.5811980865 926733.530672904
 -699312.974376357 -717337.842972296 1373458.32951304
 -724643.008464417 -1535849.48686320 -77838.7049332054
 -584197.426920057 101436.835946641 1593243.21266187
 -942537.557420667 -1409018.63549387 127630.081416868
 1477596.59446642 -217214.524452679 812112.156286330
 315632.288711234 -890113.660315694 -1413532.42978090
 1366412.68691698 -991755.234848048 198337.901531249
 -1134573.66581034 1248715.34116502 208452.856993653
 -1408216.16699606 950579.011566966 -57678.1568645951
 623451.445967108 654790.007554144 1439638.26724937
 1313951.27214291 896216.943012653 -600272.642630903
 -353420.768228275 1630463.30367172 326623.905991033
 1261517.66908388 248844.321781738 -1112047.51432039
 -935640.834293322 110590.620392284 -1415042.73570947
 318651.999059678 -1634324.26837985 -342702.625143073
 -225402.306194032 952243.386378909 -1390117.38118047
 -39990.9562605078 -1515983.75436680 -768240.834578136
 -604260.674581038 842422.432889440 1347291.16441826
 790806.740139508 -1083443.99614913 -1044401.17146542
 -903239.124527749 589092.046879838 1314203.04528078
 848913.083368595 -496694.451870374 -1386593.37888467
 -340557.511278402 -1665469.93915419 -15181.0172783290
 -1349739.66701621 -603725.199305868 838879.440090203
 1271601.29392012 -777448.146882577 -817682.412804344
 -33810.7127766167 -1696294.53809085 106965.769032393
 -460751.207658991 595840.885793639 1524034.76451734
 -611248.060617930 414021.131203478 -1531326.97726769
 522398.423788289 602114.597343317 1501518.53085122
 388030.163098788 776996.919824878 1461406.30185728
 1089255.55798812 363864.148525345 1253445.33618739
 934569.507877402 -1323319.97477509 515173.834066764
 310653.142105418 225980.570994732 1656027.59845146
 1408938.13385430 -901966.672785143 -302240.725508759
 813299.995082679 1408505.60851654 -494626.190952277
 692941.162335737 -1227669.82841866 950083.858367935
 -1559582.32453673 177381.155866329 652869.740864225
 1262864.33708007 796244.574320677 813122.527050006
 -981694.669148831 -561554.023659436 1269225.21842133
 -537192.209277261 -1409830.82139707 -783454.903188877
 822971.151203303 197538.123878460 1474346.35479649
 -142974.832411186 -432752.844068827 1637767.74093500
 667722.046796247 1408467.80409957 -678502.551975425
 1387193.61344463 60872.5587189420 -980810.078666323
 -443371.783415503 -569200.887675951 1539295.88160947
 -657391.355107931 -1385752.85789495 733161.389508027
 -1200477.23195768 3736.69195047111 1203677.88576699
 -1635834.36134269 454253.758797440 87746.5946288850
 1132529.02407892 -605717.888528245 -1113770.10605229
 1039268.22781263 -261907.770608604 -1319593.06998560
 583951.437541125 1353932.11549162 -846090.151954292
 -371874.853389838 230517.589880261 -1642732.70320283
 1056016.12015557 463383.824636523 1249041.78674566
 36733.2231564100 818464.668434329 1489552.36794187
 1234448.89951261 266836.870380435 1137951.66817298
 1647533.83224561 -369536.958044936 197673.236036117
 -16273.2389240126 1696728.11205800 104158.031121105
 -1309134.62491401 -810044.321905152 721106.601273684
 -703833.605524373 1447229.39172944 -547855.221248272
 -512916.754112423 1396863.01764323 822003.718538679
 1299841.82379173 -690348.532399787 850782.073703508
 593979.410683522 815871.235297422 1368043.34255107
 -1436063.12988508 -803818.612796476 -426143.549413356
 1463654.41336270 -846543.603894454 -176294.313434285
 357645.613746247 -1118137.77635803 1229576.15788904
 -190726.263615748 1315610.73734927 -1059618.74282144
 461601.068271300 -1522728.72914538 -598516.224680755
 -1017177.91043880 459618.403873638 -1282224.63762635
 -578110.973907735 1454563.95887682 -663348.619795079
 -1006247.35410223 1013672.75192134 921918.550835422
 1440655.63570385 -902245.514919757 -21549.2487550440
 1533791.92029575 -242500.665021886 691863.984247932
 1527061.44206795 144783.042900187 732885.545387482
 -60841.7670093455 -983856.114264243 1385036.25433129
 -603467.329226122 -184004.580695242 -1578597.31940728
 1267220.58114661 -1109725.41838967 229480.924040144
 -1416075.54558610 936069.425893672 92217.5639459813
 139960.261614985 -417668.273775348 -1641939.20053399
 61747.8051615987 -1681249.76809653 244103.309754484
 537643.765273190 -1309969.46399913 -940701.432470843
 171652.898512628 -1690786.60166302 42142.0226026361
 -1600983.82537170 -363684.808397986 441116.935787676
 -433567.308685311 -869912.689816063 1394729.83080465
 -303864.809902225 1212381.10171827 1152301.28069854
 1109265.97658253 996862.761150762 -815961.781352093
 -20999.1559847013 1382554.32888972 -988990.678983485
 1464570.33636470 755970.335854509 416584.422594747
 -1077858.48095322 -807646.797151903 1037269.37007100
 -881235.665767532 -1007662.18798252 -1047874.33229827
 -980047.172483810 -1386347.33609982 -86882.6990568834
 -381062.272977619 -1471852.15004601 760554.266649038
 -1192624.31752050 1210732.67796131 42114.3654280455
 -197652.277321521 -1684096.80804306 121455.829044158
 -1580047.12913475 454520.190104478 432275.914781788
 1539550.25874106 -604087.823629127 393526.240743057
 -1089390.67170190 -1305049.78572146 8545.24413090678
 1132457.61031848 -966725.463302323 820354.581528416
 -93023.9837715350 960337.855680544 -1399677.72768955
 -859089.520120296 1376179.80070911 508029.873668586
 179451.381183664 -1525484.70080419 -728487.219794288
 -1434230.40588812 -875747.737540887 257000.083692601
 -549858.681202322 677182.025398838 1459136.70887384
 -1401143.07532168 -596844.954754400 755363.609437419
 -599389.041718700 -130533.979531345 1585463.23100072
 -1101363.34798721 -1006786.75736629 -814480.939557389
 1053994.02017911 519077.599403175 1228680.20706143
 -1677062.18008109 108597.954401435 256259.494344057
 1482735.10644809 329944.144648733 -763304.307284055
 -370771.114658232 1602024.52355291 -431330.739074042
 1336986.22168863 233900.206883000 -1023600.76994640
 -646707.829030584 -237498.855173664 1554143.90506856
 -987081.013569496 -869050.442830324 -1077229.03807270
 -1095566.73759489 191887.480792150 1285656.53196759
 -97841.3953338542 -1321248.31528125 -1065237.03968909
 -440205.931532062 -1207886.80525778 1112307.60292652
 -960176.489484602 937773.828332006 -1043379.77550677
 23214.7789440518 1090030.46329639 1304336.86719514
 -65140.2555302698 -677160.501490772 1557950.70600139
 500020.470765717 1539086.00838450 520762.697982763
 -318577.613520713 554189.035093534 -1575240.55862765
 -1128187.19095238 -391482.107082124 1209931.99065300
 -61231.9283438010 -1087931.28160720 -1304858.68102711
 -584512.455264103 1558763.85131772 344384.153912885
 644974.891823496 -1513862.83027644 -426880.217420155
 -221146.424315238 -1638526.86741800 395378.254032679
 1203947.74852702 1147544.25448592 351641.867264235
 -761135.398116227 1513376.02187914 142709.222321879
 279153.967610477 -281350.421195875 1653153.04883130
 -284025.948521541 1533178.29301641 677269.209686763
 -1281203.28918664 -1116449.79808497 45364.9659248631
 174470.920949220 -253900.137207734 1671853.64732354
 1426498.21930949 33764.9288929203 -924101.055017089
 -640398.252969047 1132104.71941487 -1094636.46105581
 -126930.608413894 81042.1050083440 -1693316.50847191
 326739.994925306 -937332.669004857 -1380090.01276454
 -719529.500537923 -725617.377035337 1358586.29464602
 1692888.30417739 135388.315501316 76152.4366329342
 1039298.92028379 1179642.09263155 646762.929974199
 -618555.133503561 -220040.401464011 -1568110.89165912
 112187.844282036 1528474.45442466 -735649.189333192
 -1319685.11141564 862651.095018060 635817.815865555
 987231.092466432 -719157.620303628 -1182449.61297586
 -1117014.84432499 48232.8569439694 1280605.88358349
 -1114061.46660883 -1168529.24429147 532359.327759909
 -700815.570680559 -1338859.51184908 -778660.865475421
 1323052.96411105 -1033011.82417268 -269104.859258233
 908948.701506709 -376778.981926091 1386307.99493042
 112179.395049540 -1694912.17990858 68472.5180190694
 112357.737371801 -614489.947055107 1581068.57657121
 895566.976809828 787458.330028628 1211556.50653043
 1238161.41350227 -406578.957615813 -1091627.16407118
 512642.333299660 1619009.16336646 77505.9161904870
 -1147341.05893088 824561.437598159 945360.740732036
 -545762.394140144 1546816.92309679 446655.141651598
 944300.594494924 1392822.51519808 241540.531575590
 164864.163647141 -1619544.88651297 -489789.922430660
 1000815.34601278 766603.830605442 1140476.74684159
 1436585.45565752 842907.381831458 340190.203044284
 1595822.44494114 177470.933722886 558439.604528190
 2559.22830487834 662550.935148722 1565573.28435434
 1169021.04677284 -986300.397174693 742025.146969547
 -1548756.68638098 622168.538733204 -322891.678122567
 743193.608028532 704109.293099588 1357163.72054234
 -620357.907711595 708296.531104793 1415440.59937696
 -1686305.33450953 178201.302935844 -120907.462286886
 925417.081438715 231866.637309062 1407068.25985253
 -945425.460884549 -396155.850237056 -1356182.59841151
 1599277.21760848 -32660.7896681577 -575539.446134441
 -1271036.94781357 -847018.254581190 746341.177812800
 163095.421511447 248699.850805419 1673782.62259212
 -917597.284996876 280309.422949276 -1403368.03796161
 -1144761.33322162 1242969.74517829 185870.122752628
 -1114303.89088528 -658844.120754796 1101930.69804991
 -94607.5276075306 -1335187.85122636 1048008.97785158
 88339.9313079822 210788.412093515 -1684566.50265390
 348295.702622439 -737166.917160968 1491735.57971181
 946605.127632582 -128638.081526941 1406197.34615052
 721622.902072196 750620.783568325 1343811.30612902
 -506336.424886639 -1286856.81752163 -988748.176246670
 78814.3578204974 432888.186299934 -1642070.67910102
 -1646557.21531962 -406334.627522138 -117224.174790589
 61004.0125953752 -1020088.53297150 1358564.64525885
 813470.944146561 1478152.88358839 -208156.373355767
 193461.607064872 1419087.22250669 915840.631065324
 -454334.934843220 -1635056.64080912 -100844.178448800
 161428.318656418 1612865.94301240 -512449.361211902
 899773.624148537 359754.420993838 -1396776.35355915
 -1011221.49556625 1176132.54638310 695804.081795412
 1477997.75510312 724550.930153401 -424910.091106312
 -550180.592399277 1253836.66758492 1007568.81986628
 -508696.295859860 -1519564.43500995 -567584.360629637
 748089.947761026 -1510517.21055359 220678.922147756
 1683110.94097448 -42068.5677339106 235303.625090650
 1479235.56245898 -472531.845063077 -691791.736115686
 1367615.95824294 692030.726537293 -735336.701305946
 1654349.02148099 385086.179637541 69555.3691461565
 1095436.89621504 -782586.561200264 -1038063.71704222
 1501776.15011525 -277645.529141190 -746713.703565785
 -391007.597736255 -1531583.31449952 -625592.206840199
 -949942.590966607 -1052464.56137659 938044.466384211
 -1318044.26801350 -678042.092732081 -832477.163674929
 150506.626998672 366278.491252706 -1653235.56158072
 796932.241968198 1157991.63201995 -956009.613907370
 -256096.215741202 255715.529222724 -1661031.09434995
 542078.171453317 -1574830.00728093 -340678.300162168
 -701164.738678907 -1401829.63349852 -658210.975203817
 1614499.98211860 101728.463127167 522533.374559771
 -191700.540806437 -1294253.18449871 -1085430.60444667
 846294.257011205 -264995.767881527 -1450366.59971013
 -1289775.87484782 1083291.10137566 -230127.317676207
 -353179.549932504 -1628827.92324493 334938.504754331
 1618832.72555075 -379260.142127181 -354319.560960996
 -629948.111844528 1462831.89936236 -594380.526759944
 -1564355.08934765 664844.931336362 -27827.5350767839
 1223691.12973058 496435.827533650 1070575.30709412
 977908.004488565 -525992.989168813 1287255.72832380
 -1213766.11278308 926393.312154277 747373.571017381
 -693000.471208380 201551.536807808 -1539196.97404698
 -1408997.17373688 144350.839519882 940154.136049713
 -991323.835389483 -451091.394207060 1305294.45239801
 593424.878734014 1524321.83805969 462914.514045342
 195988.407990109 1603391.26915128 -529834.862898747
 -1698160.31912776 29346.9493350678 73418.5746566841
 -989029.165831414 -1263644.87781653 561269.037007080
 750683.666969987 -55046.1414874163 1524284.73536011
 -200174.700543572 -1468341.38964822 -833008.795096566
 -519403.550029905 -608213.336628845 -1500098.82653215
 -1200279.60613546 55582.2599986280 -1202596.97299999
 415403.307402789 1494642.18520191 695330.734552767
 -1566528.28735287 511436.368898003 417638.558435051
 -662907.984063506 1544444.34006942 255430.391872970
 976809.917556273 1390427.64426329 50530.6939605295
 205604.262589596 271124.563829784 1665598.49846627
 -797743.925237863 1330179.36184813 695864.566607168
 257946.695812488 1676562.95990040 112250.361288572
 1610186.44992412 499322.935549614 219034.706188052
 209312.594615607 -1079248.57575587 -1296692.23390295
 190124.472258100 -1163304.73543979 -1224979.50087009
 549815.020376224 84459.3995328698 1606415.28043008
 1367959.33021499 -846918.663230520 -549013.705429633
 -867356.795611108 980458.097105545 1084617.03330134
 -419735.078212402 -1399074.78523922 869719.615408243
 1231361.70371994 971244.407546362 656073.666154835
 -983491.832139168 1277986.13522080 -538047.631998274
 -739138.831333985 193000.847810897 1518691.69378070
 -1114261.29949809 -16314.5163794236 1283805.12267093
 776624.352197469 1280572.99191807 804355.287136147
 -137898.399416388 -1591095.47748900 -582579.791060809
 886858.208878111 -213939.957355235 -1434472.79932118
 -1297505.44443237 1074983.67771363 -225587.487059068
 -386998.559995267 -272188.770605118 1632833.54562493
 -163289.742603495 1691132.94150309 58359.5247032075
 -1014924.72344098 179036.027470046 1351988.87074413
 -955439.894335723 1233095.32530466 -675729.625681410
 694436.854510455 -1418626.08130940 628695.074361462
 -1112254.92223288 -219678.017388089 1266740.12987873
 1312244.90816884 529565.051749929 942111.541671184
 1391068.51992489 432908.525802097 -876081.378161770
 -584581.618564397 1572519.81545439 -274673.918019016
 -657990.050233568 -1415090.96910036 -674215.576032051
 1527001.72981701 174265.138927297 -726565.467449778
 481207.107690246 -1628961.82201328 70164.8197571432
 -1048982.22894501 -1198420.91366484 594494.404555923
 -31672.0238066346 1681502.71372852 -248083.668611251
 194696.028248674 -1074698.88846483 -1302733.95431172
 463744.324996575 245548.939437677 -1616986.98800408
 -644038.926269175 922076.137213096 1274750.74372688
 1109756.34742251 467233.001854299 1200055.90342020
 -1101628.75691804 -476654.843042502 -1203833.14563744
 635038.990627656 1220435.96814598 -998629.825329787
 1483274.19554769 633156.149419763 537597.387711555
 897910.017111215 -1189241.15846808 818207.228137729
 7590.63960087561 1081516.29266004 -1311588.68968184
 -745262.008196759 -1164469.29146532 989240.015553752
 -209793.284376171 -1640562.35503647 393118.222762369
 -1484342.18210698 817764.182078975 -134126.913505756
 1592001.63514909 -466968.718597745 -370770.831557466
 958518.451982457 659046.245119918 1239717.88081099
 -971100.985159991 1317180.94539798 -460431.573311143
 -127597.210485632 405574.560330133 -1645973.33753901
 -732678.421711245 150929.600586601 -1526565.61798879
 -711223.274713489 369732.927210260 -1499152.76607901
 -15472.8268621732 -938458.494095227 -1417411.81259696
 -1325095.06182107 567568.732351670 -901104.217720760
 -534735.455308182 1597274.88066289 -229719.281819595