# OOMMF OVF 2.0
#
# Segment count: 1
#
# Begin: Segment
# Begin: Header
#
# Title: Oxs_TimeDriver::Magnetization
# Desc: Oxs vector field output
# Desc:  MIF source file: /home/martin/PhD/repos/ubermag/oommfc/docs/ipynb/thetaevolve/drive-0/thetaevolve.mif
# Desc:  Iteration: 2090, State id: 4189
# Desc:  Stage: 40, Stage iteration: 50
# Desc:  Stage simulation time: 1e-11 s
# Desc:  Total simulation time: 4.1e-10 s
# meshunit: m
# meshtype: rectangular
# xbase: 5.0000000000000003e-10
# ybase: 5.0000000000000003e-10
# zbase: 5.0000000000000003e-10
# xnodes: 100
# ynodes: 100
# znodes: 1
# xstepsize: 1.0000000000000001e-09
# ystepsize: 1.0000000000000001e-09
# zstepsize: 1.0000000000000001e-09
# xmin: 0
# ymin: 0
# zmin: 0
# xmax: 1.0000000000000001e-07
# ymax: 1.0000000000000001e-07
# zmax: 1.0000000000000001e-09
# valuedim: 3
# valuelabels: Magnetization_x Magnetization_y Magnetization_z
# valueunits: A/m A/m A/m
#
# End: Header
#
# Begin: Data Text
 -1022489.38552048 -1352179.02558172 -126993.461543584
 -1350000.51256871 -987229.277476473 -304757.230853526
 -1047523.26219417 -38068.4771061183 -1338374.31468663
 -355324.321526573 1662431.05996747 8221.76301842758
 932356.849549322 -625082.374742160 -1276707.76996350
 773886.486870456 -1105853.82972632 -1033531.33127107
 1326287.20293059 853298.479785325 -634699.897383474
 -769835.178395548 -1377967.04766043 -631316.571671214
 -2059.57222986217 -609255.857944372 -1587073.74048048
 -179721.991101315 -569612.119016876 -1591616.17225501
 1185404.80314309 1168929.08003043 -344122.447022159
 -1119483.33542966 593847.897712449 1133182.12837910
 -1554711.66086067 306168.674571870 -615737.277005991
 295669.607300847 -1670728.89048967 -106039.887786309
 -1447288.33882045 558288.647866742 695464.053691824
 -673304.700595524 1071100.52677154 -1135519.45897272
 15112.7685967703 311288.246701766 -1671188.56856151
 1227887.09668706 -354095.427507026 -1121119.84462324
 795247.314179721 952227.483898101 1162258.37411439
 -26839.1475680952 -635697.436041864 -1576441.69887999
 1612648.15263068 460560.842773213 277938.205219949
 -343823.263885321 -923694.273803146 1385126.15012299
 638026.055758233 -914508.824046099 -1283197.70998682
 -1036112.88298129 1147072.61513047 707597.703033254
 -748764.520597802 1510553.06672017 218130.982018222
 -1113948.99309802 465941.301126213 -1196668.85339291
 881189.359878762 -1290339.46696884 -669723.354840661
 779073.169397363 1494013.43493611 -225762.824564972
 876323.291972505 -791176.615151385 1223150.46154758
 505783.156751913 -1563090.38463937 436957.489687508
 1519023.27163788 -350944.603568574 -677795.091047922
 -243185.523728773 -1564426.99788266 619216.415596841
 -1023441.82248555 -634659.292258845 1199906.00412572
 -1561077.67773531 -661060.100177331 126633.439620283
 -605251.889687961 1455135.81518546 637377.368121667
 944022.156189894 -1407341.72442606 -134949.765883722
 1402548.60324072 446801.508803924 -850426.850045347
 -146222.822439721 1300681.84862018 1084825.15405376
 518720.019002476 1034321.79475768 1245434.85047405
 1574077.75298607 -517397.862176509 -380235.032275458
 23000.3141913039 -959430.497947636 -1403197.81397886
 -71836.5704743486 1530496.55919649 736491.540637219
 667945.713930277 1376948.66836069 -740176.254646081
 60721.3763883307 -378524.218886683 -1656210.23127070
 610959.470652195 -260303.522137985 -1564918.72043980
 -1534268.94726363 -656786.738177418 -323496.488414998
 978519.991251862 1221146.01330362 -664304.930670497
 -1561598.92166029 667886.333252969 73052.4039531231
 -1059304.19143504 539818.489028611 -1215101.07765199
 1321543.86997160 -72457.3901442280 -1066898.17993751
 1118085.37704647 1086744.95334626 677399.805145592
 1516932.75168877 -604939.735084005 472189.521029893
 -93622.9924412192 1139896.67210851 -1257724.25920879
 958485.712028211 -590863.092420106 1273650.63728384
 140135.973255878 -1339992.53779238 -1036716.88886617
 390040.585624075 -416748.289371617 1601308.59139388
 1333293.79028070 714740.615029796 775547.240357246
 -682162.085789499 -242629.367181194 1538111.13996765
 -761513.387934221 -805203.385807530 -1289086.83473265
 -975782.806439265 1342382.90460239 368586.559831961
 304909.919937814 -1164558.96676629 -1200346.76391772
 327408.722672066 1400044.50185039 907016.494423748
 -1373063.88162456 -972359.106983901 243337.921507448
 1116497.25912972 -197076.957173856 1266725.91483198
 -577427.103817059 -1187944.48485787 -1070217.66041923
 -92409.9871869112 -1693371.14777746 -118129.378830816
 364868.527301594 -1329429.84211213 -994729.738515189
 -1045635.48130029 1121464.82131621 -734141.059195100
 -996524.303775130 413584.827357290 1313730.14830495
 -403468.716705767 786571.315637549 1452073.88243712
 1024754.60420280 -160368.113495959 1346907.59495182
 -943728.421192287 -524075.357930672 1313286.59714616
 1135663.99726109 527976.018189445 1149568.87985965
 523632.840694939 611632.546431340 1497235.54469284
 1445346.00208405 825275.355247364 346259.328077964
 -1220362.28476450 798308.698804794 -873738.585239869
 994445.819119094 -752515.511860959 -1155334.54775887
 460625.330901373 1267473.27756561 -1035053.52286203
 -168403.911792327 961865.736474597 1391565.45929008
 942815.105138548 -1094038.42495067 -896760.615913769
 -589539.682675481 -1303756.39821856 -917966.348323874
 119709.171715575 -1287731.98388013 1103365.78336439
 1362929.26543703 261708.650386108 -981800.590613169
 -820614.631380331 -1335961.45350004 657113.857353950
 -39313.8060940332 -729796.114779355 1534878.51490056
 309991.875046030 1244729.44513205 1115595.64620283
 266957.322868319 1659908.15038930 251870.442962539
 802795.325176947 -483551.830092152 1418343.15082372
 191121.167364023 -146725.766752216 -1682838.15287044
 -11870.7711343882 453468.117295657 1638360.69025993
 1289230.39968036 345804.471031060 1052760.29767224
 17692.9776362364 1661296.26078928 -360252.262213485
 303690.236337270 128870.237014335 -1667682.43450763
 -1570287.10562832 -423281.550476654 -495006.196853651
 285632.490288806 -1218502.22496817 1150507.02224672
 611452.866705334 -1441443.98049108 662091.113747838
 362816.115756379 1559801.05400841 -570425.400961157
 747379.151957972 -1054083.14411845 1104686.89161406
 -478034.030311739 -1531934.91873470 -560944.623492581
 -343573.549748358 -1228010.65336374 1124253.99760841
 266044.966600396 -1591151.94613833 -536148.822666620
 -985451.566437010 -1034237.04012971 -921541.618718650
 -1083516.82253488 1113426.68157453 690124.858298722
 1031165.12483109 979940.407657904 -930814.311649395
 -1295887.61366544 185782.871012140 -1084509.11364865
 -1166197.08197425 1116762.84971285 531813.034341932
 481821.877486059 908926.190039765 1353403.43557847
 -1267314.20119203 -13387.7418207524 -1133020.51341798
 -1287714.10433961 -46034.4058029323 -1108906.31658730
 264253.880550315 -850542.197798329 -1448015.14369791
 902176.960266883 -1321409.39310419 -574416.180290572
 76314.2141616076 -386220.476154467 1653786.52930658
 -1651682.87641463 346496.212114225 -204655.932602002
 -548084.859146909 -1288344.86769338 -964246.072878719
 -420572.639285237 -1470527.08333340 -742070.584424151
 -435488.631500621 -450239.612419110 1580390.44012624
 -68084.6269732089 -903593.360687601 1438361.40176633
 92292.9921467170 996993.454910784 -1373858.09109444
 -1156412.71881252 -656939.794040624 -1058838.85968286
 -1557198.02755412 576103.159802477 -365019.797061951
 -1478262.85769758 -210815.471099213 -812585.848201282
 846605.228802553 1368422.44507250 -548342.592168413
 -1210927.41855190 -418805.101629285 1117254.25658106
 351636.726892644 -1660173.68352255 -100870.971242418
 -213720.861980261 -1276816.56644064 -1101845.20183969
 -88567.9414580593 -566352.141117013 1600437.74386824
 -376100.411059236 770135.371849783 1468141.67907150
 289953.236991005 -982570.264941422 1356643.94548142
 -188174.153564543 -1655428.37270346 337857.056724667
 -598838.979365895 733262.565249322 1411990.75322610
 -1349483.81166243 785331.260734123 -672419.700019852
 1657462.93429559 373088.876474350 60177.3353294344
 -1575585.89987775 594900.878605551 -231564.282091966
 -648721.158469538 643466.178460467 -1433566.22997733
 1319164.28056102 -1022688.03867858 -322358.149324127
 1651316.75334776 205910.856393769 347496.329955027
 -1200325.71922644 -202287.474771838 -1186717.29797537
 -688227.356247238 1481070.23450884 -471989.477176004
 1510070.95667034 -413026.450764019 662642.329458349
 -895251.142742964 1443458.86135989 70369.7874021022
 -150151.530475497 -672451.053335810 -1554111.99685332
 1331548.64556769 151493.720997117 -1045957.86577916
 357378.600178425 1172527.82115243 -1177904.51427866
 116733.417385963 422640.648726054 1642482.32602662
 -32549.2634237230 1475246.63264216 844149.227523504
 1510442.77341112 779364.672235489 33960.7997756662
 240818.417830715 226717.703535150 -1667514.78930091
 -69486.1014507846 1626782.40311144 -488621.217951222
 -821570.569901870 -1165715.54700632 925272.425904318
 -1285773.23014745 919211.947842765 -625968.526029303
 -77719.2786604109 1390527.55909520 -974880.926637332
 26063.5140239198 446167.730705380 -1640199.69799837
 -368856.960986933 -1028500.59726466 1302355.96660734
 715057.959890888 -479566.057676172 -1465847.36938114
 -92945.0204882618 -9790.00668944713 1697429.04975008
 293772.067175021 322481.445254992 1643077.50578418
 -227911.870534669 -942514.190174835 -1396324.88360999
 -1374682.63147395 123640.203818203 992451.894412851
 1483179.15457911 291704.813518075 -777873.959708376
 -994675.832801445 895354.561619319 -1048313.02416226
 -577844.458038874 1299098.92887464 -931900.077964657
 -1432259.98760823 -357679.836694090 843028.150371601
 -1585678.96146302 552854.602558563 264526.028215342
 -811273.316580152 494843.989247857 -1409597.47166002
 -1267661.12249554 153146.457990508 -1122310.75951285
 1288801.32868982 -419480.506905692 -1026171.15506795
 699089.980776571 31542.8322564457 1549283.14020099
 1010547.57728662 859561.578559836 1062989.88080972
 175974.734663636 1671626.95771971 254354.490789532
 614590.334865337 893282.723950398 -1309322.22748332
 871858.910537898 1188339.71318066 847178.119519956
 96631.2716256004 -1515915.07556925 763324.230590053
 -162197.908003265 -645181.563201966 1564427.23996472
 274681.662411599 1674660.74959552 100306.321331120
 356499.046489161 -801690.228656444 -1456091.07102856
 -1009767.22143355 -803110.934096011 -1106970.18300124
 -241373.695790664 -392803.675766903 -1636289.70884876
 -788118.729201274 1435816.96390006 -455300.466570122
 -1535720.23873482 -436759.169446649 583784.871544777
 778140.187211485 -1057575.68832696 -1079829.39046232
 -655277.636211755 1029846.06679755 -1183227.91472410
 -1450192.80024503 -707047.241201018 535747.179952923
 483778.219739927 79676.8247216886 1627762.34067125
 1100532.25845481 179353.776188025 1283222.88440764
 231557.272468573 -1343184.37632352 1015990.63025567
 256068.235951367 318859.926533374 -1650077.99991027
 1108911.03837431 1285248.54452461 91937.4122378564
 1532589.55565946 -109646.364187119 727424.861208408
 -904084.436677332 -1256682.33437054 -702410.735851069
 -116951.981806289 -544220.060263321 1606283.52415088
 1083061.09742223 1081540.39509369 -739762.822147158
 -1507615.15847495 -333369.996559256 -711309.341517893
 -486229.619327978 1010296.92638146 -1277842.27423902
 734307.557283162 785296.942030608 -1316852.73442182
 1159668.48975393 1231543.33046999 168730.610876390
 1626642.61104152 -99405.9186734704 -483892.838629282
 762498.291562108 -369229.327066858 1473860.93624827
 -822851.980094537 -976169.371592206 -1122500.76918449
 1172121.54798649 691193.523963161 -1019010.59326051
 -1010508.06789042 508231.123652885 -1269084.14601983
 1068692.50877955 -1234946.30508203 472021.127962203
 1293770.67090183 -404385.542910974 -1025977.47723760
 -312308.234055482 -108612.267235123 -1667533.19077828
 -1143216.44439202 1132878.58513695 -547395.901162748
 -169957.778792863 -1536705.41401917 -706859.833313476
 1516680.66074881 651710.092277526 406144.960493398
 -241942.288323704 -1190352.19453439 -1189338.29589729
 1436457.04141909 860311.479123157 294032.867289428
 175458.947078248 -1636066.26426628 427201.751892454
 -781296.630147019 -1508943.12945980 51635.3345779781
 -1073371.54918780 77864.2558859311 1315982.77916146
 1473717.13654093 -10863.9259966599 847372.277442171
 652664.481925232 1330888.09721733 832325.625412618
 -504233.278812632 -1294957.46381838 -979200.677817847
 -1033454.94204126 993268.888110545 -913995.513491252
 72228.6240098382 -1410807.86093927 -945729.456761084
 818815.209703910 -523981.629710486 -1394627.15593935
 780322.687347149 684498.183179173 -1346313.01740559
 1140956.92063365 597108.543802190 1109810.20547507
 -1018074.41842825 -1348400.23111984 -187992.806399493
 1302234.22604500 1092783.82416412 3087.74386983109
 697993.859151580 -1396377.40039595 673004.255744443
 -51249.8530162647 -475708.099955254 1631280.25066289
 479310.648236648 1279355.64859347 -1011686.92138376
 -1143439.35850361 -1025094.60230003 -729196.468559875
 697124.768072356 1409237.29925015 646581.233985490
 -1365909.84227638 923286.409100106 414526.850208233
 1297265.41951631 1093309.03348384 -108525.520638215
 -715050.857126466 -477854.977560549 -1466409.52402230
 1173964.77678066 1104376.73374984 -540517.097630015
 1354484.70558462 -996490.986262123 249753.671916314
 457814.855936915 1571122.60797512 -460412.107131110
 -1239908.11394611 991151.643924336 -608478.666607699
 366805.010308131 1573848.17074688 527689.321333640
 1625874.89457567 239568.019484528 434899.978418979
 -893930.012865616 -188131.736246649 1433699.96230554
 -140951.537591867 -1106140.46674855 1283193.64550788
 -1216763.28650421 503274.762098736 -1075268.16118118
 -1040896.88612233 -814948.558621471 -1068827.63777029
 -1204615.23159051 729097.395286251 -952533.008355588
 -435809.632020731 773439.700107443 -1449779.63668127
 -1018744.14351942 -967437.540433733 957196.414224587
 780049.168284642 -1169221.45505253 956265.906588368
 -1394311.99791008 -957431.523721330 -170935.455270839
 1493068.74201595 749773.762105051 313982.542944287
 477519.873801365 1512867.98696336 -610905.249728750
 -936650.953551630 -256866.971278972 1395243.47347579
 -561151.364591363 65546.7194613130 1603375.43126528
 -1325539.93225164 -1062635.40077198 61236.3701772854
 94961.4914302681 -147953.651824018 -1690884.98486954
 1331692.28587929 -1053474.67316314 82381.8471110489
 -262121.156099557 -1240203.92000300 1132778.32621137
 236979.141582943 -36605.8643951046 -1683003.53450208
 357671.559060129 1584723.28665163 -500722.638377339
 309753.275589765 -1621548.67240217 -405749.690440001
 -1133413.05903631 1233224.74278900 290743.136426246
 777234.520403654 -1177206.42445975 -948731.539743248
 -1068544.66512437 1231775.07311840 480564.738488396
 1092483.74683358 1261331.58768905 -324841.328654892
 -619240.140062590 -785556.100149582 -1374570.21008497
 1098281.98177612 1076370.15922393 -724709.575511577
 -1413496.97430012 117690.746317106 -937110.021222551
 726467.674873643 -1230076.23377331 921497.247130854
 866917.194235240 1140738.91313153 -914969.568022233
 -80598.0777478248 460922.160474679 1634336.16855490
 -1522192.17606104 142807.881582441 743328.250570698
 38652.6475532247 1458948.13750275 871766.198538565
 368043.133743885 -1568277.20363109 -543185.846902361
 979863.938739937 -605587.261355292 1250252.26672110
 -163162.910007407 1649893.03392663 375806.920370425
 -1157349.52391565 158602.237865336 1235065.75113892
 389314.432379821 -926012.835747957 1371471.65511023
 724301.023755800 -684457.251704772 -1377282.21420849
 689607.259418463 -1038965.46587084 -1155418.79354853
 1582628.73706930 403602.848989449 471583.524828866
 535087.990119392 -530813.856673532 1523783.93888155
 -897535.387554929 -160562.414303204 -1434799.61639239
 -1411752.78835847 514907.888430354 794873.531446525
 -1489738.30770386 -815265.839958272 77597.5821580949
 240863.767242310 1675947.81219175 152261.539593978
 149965.314640377 -1689561.53404476 -113543.943392578
 -1088669.49614894 863885.947881616 -979030.028756772
 149279.848632235 -155091.960901781 -1686316.10632644
 1586949.24541543 -527652.173116096 305246.255802187
 1597289.07207597 380686.071975397 440165.576607991
 -1443322.47766743 -577827.949520446 687702.760073677
 335328.296554460 345374.949265572 1630420.52181322
 1228619.77861029 1110589.87190123 383514.766388489
 382.364718224214 1695449.60506205 -124300.001979669
 -810223.728979159 -1187367.06237003 907577.527375966
 -588036.397301058 -1236749.21085455 -1007305.60650671
 1462517.54285270 594233.624823119 630816.008022685
 -1148664.78720589 -352872.393001594 -1202518.30792324
 -929751.376557210 -1395930.69136338 -277380.393502717
 -1604124.23144935 99113.6886048738 554041.448637354
 -417623.953752741 1057132.11180994 -1264144.74307026
 298867.311995780 314947.200699293 -1643619.96537889
 -142711.131095506 1390956.76815126 966888.205634775
 124546.574869466 -1117998.34270613 -1274585.36646025
 1199642.98198176 773758.591632462 -923122.070831832
 1080600.60928335 697416.908292364 -1111715.78168360
 493760.499792142 821190.347383547 -1404224.69078460
 249293.235274319 771330.485728483 -1494289.85295100
 502014.133534444 1600233.50198000 -277911.044891147
 -1620549.58220583 31873.6214729281 512643.271551198
 -603467.887025672 -31110.8604768707 1588980.37234233
 1340873.14541159 -498844.372825750 -918266.573285843
 -1217442.80268139 -998790.995443085 640507.275228855
 -1538971.08785217 -61647.3478469264 -719560.696021233
 94531.2504643826 492461.726978555 -1624359.96323073
 -1429441.44149760 851975.659051487 347612.775531985
 1017472.51948880 1253717.86927095 -531922.152533449
 1469632.14750413 791432.256060215 -322205.423743655
 -175161.956547833 386340.275136240 1646225.82921846
 -605309.167087495 1077137.20171510 -1167637.04160206
 1224254.62565064 800637.650189556 866129.300204044
 -905645.279126889 -125141.551044700 -1433229.29798316
 -1052603.95789549 -903061.732942025 983109.563740737
 -301288.392013001 1508048.00275165 724580.241405305
 -1426439.73310231 820240.615580907 427170.949829759
 1032953.05320388 831910.122686810 -1063453.58979505
 1044672.39582677 616814.581686963 -1190881.75618568
 556813.721581591 -599427.296934316 -1490183.00726739
 222713.923767163 21126.4937283102 -1685215.76642962
 -358885.371773900 -1659557.81543618 -84078.2204343082
 580202.651179207 1597573.27169769 -33533.9398484777
 1654279.96450049 -207600.601725919 332053.895046117
 -1214453.86725115 785446.180680154 -893407.018986128
 -1607969.67220561 152656.778851795 530216.409721149
 -1089407.98384056 -1303886.56542865 55408.2055215932
 -107932.844704927 -1475808.43258008 -836863.173618861
 -123963.401099850 1509682.67154954 771680.831957611
 737660.542992157 67275.5930285040 1530140.81636142
 -187425.093663879 -1669063.46112963 262866.880734464
 -322353.710842523 976238.633285558 1353900.37151439
 654616.094029073 1243980.75969754 -956028.053427537
 -191374.480111490 -1033971.71705733 -1335768.80360621
 370218.171992486 1105866.45306204 -1236930.83602865
 -137824.893515344 -1078151.36465857 1307131.94957983
 -878222.466435313 395311.569652027 1400876.17666499
 -177472.583903437 1376222.71319306 -982097.004197731
 -579422.932045296 -180771.811755972 -1587951.70515180
 -1499566.36310311 460216.231979057 655363.824507203
 -1317905.14281445 779708.876000639 -738363.124234307
 -605271.216227879 1162019.66348504 -1083216.07100344
 -955800.125257988 1332333.00328868 -448703.564622099
 193348.112384322 -114632.375225263 -1685074.45710498
 -735789.959942979 -1436730.22260155 533309.855815923
 16158.0188603580 -1697213.68814096 -95940.6859130928
 396768.269712424 -1652744.92274122 -31767.2866721731
 -1551505.69115381 649410.044185386 -247177.435920995
 885141.345498584 914268.991914859 -1127225.35852949
 -1252612.47845833 -1143516.23828173 115466.841978507
 964342.691483700 -18519.1969543105 1399892.92902212
 1667079.90313022 213984.594383813 -255059.189102701
 816020.378579913 1376012.30610688 575065.974636571
 -211097.987062242 -902269.727426472 1425253.30339138
 -924709.782369161 1072392.48506060 -940683.887592606
 1104164.16180980 985685.459729927 836209.111557545
 1499029.40987114 326382.929999804 -732383.104219451
 606285.365794632 -918406.999263435 1295741.73311166
 -1015893.68054097 -1352118.56349036 -172439.612913314
 -600653.740308532 -1057322.15003672 1187975.14927506
 58254.4670065117 50384.8850280223 1698254.33325945
 1414117.48069622 847828.708660556 -414075.152068240
 644309.312336468 -226198.385410224 1556823.62535848
 1017004.18057540 -961070.249103708 -965425.539842349
 -1034939.37113144 -399371.014150851 1288178.28391034
 -994787.046225161 1376313.00926313 78493.5232721513
 1081633.22131132 554382.438236199 -1188583.05840652
 -883757.932139130 -1032480.69393861 -1021251.94444134
 1177204.73104043 1130368.69300026 -475873.553689315
 404410.242605695 1369550.09025251 -922380.022531348
 -1363027.18312773 -972627.727648234 293516.952601897
 -973387.635058195 966489.400466023 -1004198.56139244
 437085.409520126 1505167.01206661 658352.952884006
 1496037.86640714 -313746.572818125 -743931.307528351
 1286723.77725996 1110973.43297849 -8941.60219740237
 -210128.150412039 -1225617.04602295 -1159184.63451789
 312886.531585255 -1601522.83263608 -476682.950080926
 -507202.843050623 118659.434016161 -1618229.03654592
 -1472305.74048938 800033.445280686 286814.038977040
 1682807.41708389 131129.067240739 202396.553162407
 -828656.891117097 660760.675041285 1329181.35975612
 1067519.09050340 -658376.151368989 -1147581.73335033
 -1267617.36366280 -34005.2570961794 -1132249.91138459
 -892364.035482311 1150448.09114664 877585.105704726
 829077.543473758 1399990.74733401 492601.597933551
 934762.776927165 -792148.116896322 -1178439.60887651
 1629424.60394838 209729.744375594 437022.761846358
 -160624.412780688 1683653.05696274 -171791.099300479
 1325632.36547491 994292.289592058 -379580.919519367
 -622428.046730559 128411.554420954 1576735.17095750
 804025.289565303 -1190980.95519086 -908354.390154028
 -700962.210663512 -598532.547528923 1428429.47630265
 1169240.95836988 -94370.9779316637 1230434.76047879
 -608107.868621411 -559042.684718700 1485825.05591447
 576510.372900583 -61111.8666669615 1598092.96653559
 -291607.095691713 -1628860.76004551 389586.865957003
 714371.788868128 -1539243.30502133 101995.074471079
 1629340.07027715 483736.081005012 35360.1374877120
 358409.261390193 686028.474017962 1513574.48914360
 -936339.988894946 788878.196039168 1179380.60735718
 -791745.189949829 208098.846195328 1489910.87800696
 141917.251455054 -1188704.49151174 1206996.73802345
 -1520034.03286471 -268517.654189797 712316.508527951
 -1348891.38876944 244668.731072018 -1005300.56865560
 1642908.45965191 435293.989031071 37026.1572084073
 -139066.624800523 1590926.25837575 -582764.201265931
 -867608.417483664 1220800.90506056 -804301.426154899
 1349976.33807067 790043.006875876 665879.819438793
 513409.695955589 1400119.87335105 -816134.072531128
 1331949.34574244 338966.171802403 1000506.30920046
 830697.416754616 -660.657232433731 1483219.93154395
 1077.75174696860 1435063.43361672 911368.081483745
 488566.707752226 -748781.906698399 1445900.49044783
 -312676.444392845 -1450873.67469417 828974.680675647
 201299.734941773 -1277936.20929799 -1102885.96948073
 940604.657520235 1339696.62150259 -458776.460365809
 1471948.32631713 850230.648838989 21816.7006448720
 -1444432.81993262 870398.082576773 214525.072073556
 -297492.006917105 742329.937054145 1500148.24946524
 709379.639398885 1405157.88272398 -642115.139071622
 -1590534.34332447 427524.131290907 421216.832367070
 -1168451.12059584 853011.196591010 -892801.140942761
 1111006.44249732 -208760.580933400 1269678.58317678
 -121721.936261211 -382163.118916439 -1652009.41909327
 317557.553604228 1523682.95774850 683774.410471519
 -440945.077436916 -890847.492787414 -1379115.00001941
 -47993.6383035299 -381614.998194108 1655918.65858070
 -1234907.97447031 -1026348.52470218 558221.282674971
 -1244918.43025345 -1155683.93558856 -67622.0602898319
 -972833.378378465 815607.140488347 1130654.77060735
 477207.947523601 -375087.151790222 -1587949.05566338
 1160310.26700904 -1229749.74568209 177188.169097835
 560882.638268066 710610.556411471 -1438903.50726031
 114413.911750728 -1694931.07548023 64172.4720525657
 1174416.07730024 -1215331.57228172 183619.298533563
 623867.879825532 -1516980.96366459 446718.730748147
 777707.775176677 1484535.83203985 285173.595936739
 -367355.189279476 1197262.32546416 -1149614.32181997
 952056.769929331 -217501.468898839 -1391503.15050257
 -19229.5929086039 -331219.379481062 -1667310.39264222
 -1471837.81577899 697802.637612010 486584.959677820
 -780092.673356743 1450933.74221918 419817.456360457
 1200952.81549081 193084.270058606 1187615.59421415
 -211585.649395228 377806.700566809 -1643926.27875365
 1036132.66395970 1286101.12746834 402955.323330558
 686109.552269501 1542296.51833977 -201432.697945420
 -1159666.35080189 -1208758.91920747 289958.324685143
 -782029.846938266 -952247.273069463 -1171176.52359902
 -368929.246202849 -559866.357449767 -1562191.04884522
 724164.082566958 1301538.31279003 -819502.533162432
 1303431.77269965 536729.376516554 -950256.381352529
 1242023.97867703 -789727.396943916 850709.747744476
 713523.580452954 1145716.93529054 1033545.74370274
 -800179.827674326 1139421.44903277 -975413.248252831
 -1093409.82778519 1218707.61031659 457391.199149254
 1260129.25854382 1074943.86604049 -382844.533229511
 -1514642.16468208 440696.015759412 -633755.579589600
 -1527915.70356040 -293117.578732706 -685241.335480720
 -1159879.53524680 839960.241903266 916049.264907442
 1346372.31347497 -712302.100130982 754922.056676747
 -1243055.16493932 301057.590320407 1119900.97072382
 1315630.93807787 1073287.15904584 -84675.3151730677
 -644580.048486213 609268.019571735 -1450278.95296755
 842386.848976625 -1203461.30969994 855608.130353218
 559929.723323456 616179.132809485 1482161.25345020
 -1065146.24267689 1295506.77794580 277715.087828848
 407597.111722727 -1245785.49804907 -1082535.49011842
 -1389387.53122179 -307545.996981186 -930063.303128478
 896817.024598895 1321702.22509006 582084.575110489
 -581468.813298520 815055.141637427 1373891.96636839
 1140553.73168911 -235912.243476314 1238338.64451854
 1391359.77321966 -480094.030548352 -850663.096236084
 -399015.996056060 -1256753.23279850 1073013.30222039
 -1590754.48575551 -563440.371108411 205024.667427906
 -508998.987227188 -393231.801034381 1573622.82064571
 -528648.435608269 221494.966107991 -1600459.56259999
 -194484.901460417 -1508386.24789846 759569.977194153
 -1506670.49698137 678231.429318059 -399932.671597462
 460582.323210156 485033.025764500 1562884.15676405
 583619.589556766 1288308.20069934 -943212.677340815
 92977.0085512035 379278.157740841 1654540.22463692
 978398.037494519 -173024.070229604 1379420.15040670
 -557065.431312822 1528760.40244264 492513.692357563
 -25266.7151606375 -332698.221189513 1666935.35769157
 1519031.17116448 -278544.937622988 -710603.278035826
 890091.036006952 839650.008484041 -1180138.04737955
 446869.878073976 658339.882709342 -1502296.87841798
 278804.507103272 36507.9976935667 1676584.38884636
 -282252.350299547 -1540850.73862619 -660388.228260854
 -539496.950390106 -1327632.24045796 914513.900723416
 -1015033.91924614 -1039011.38711134 -883267.502081214
 -1621552.25320458 29092.7745691520 -509629.179497239
 -1237584.62951219 -87763.0397677799 -1162188.42432967
 -530068.165507954 -1406197.84238119 -794754.910646999
 -934128.687189171 1378908.38531950 340610.130010559
 1179595.95526805 -1071252.06463246 -592429.233188187
 -762178.125851666 224245.371859384 1502929.97763465
 -16436.6652026201 -1697620.59858673 88397.6203924123
 241120.324743268 282757.583230332 1658887.92210970
 260728.619968578 1052284.32044490 1309472.52574275
 1579656.97087239 399642.243232544 484736.971767491
 -867121.095756400 984661.390935050 1080991.65144606
 1064185.32134203 -1318935.97714899 -133856.228925627
 -702752.324581161 -1544235.16364367 -107130.432941260
 -947638.054725151 1404140.45091372 142729.504113704
 -103026.519551122 -103874.936495261 -1693692.86880393
 93876.9928638134 -387444.206076981 1652596.16887739
 -689262.427998200 -1148244.01602863 1047116.50975642
 215176.170684834 -1306990.45560408 1065586.77006110
 1043188.73561591 1340487.09946213 -69653.4138409189
 -1346119.67950863 1033704.38592453 97041.4909199493
 -1169797.34933750 1063407.93709871 -625090.170134215
 -368167.642558913 -874014.386966824 -1410869.03656846
 -540996.285317574 35934.8694891055 1611220.56355652
 143727.727201759 -745033.421609036 -1521271.68550491
 -1362866.10057128 -760833.641085615 673593.469762012
 -1046372.58513065 -1331473.07001832 -149277.851347692
 -376891.859359826 403324.138505828 -1607881.26602894
 1030342.19788802 1278315.55059242 440799.623825698
 1230370.86528161 655755.862944401 972713.617710903
 -1379536.13030002 913277.691214911 -390901.424819621
 -360623.988220905 -1562837.50525417 -563461.863208655
 870110.037581965 728674.452040771 1265678.50003158
 -370404.845951116 1658580.22242902 -43725.2314255650
 -139076.267128464 410561.742588675 1643805.59904271
 984443.103783511 1385886.38147940 -13809.8893198103
 72313.7985382333 -1082459.85111212 1308835.88935791
 -493870.469813781 1529869.83064342 -552802.189153590
 332035.367430184 529948.987388634 1580793.02425753
 -1184863.98413845 -1164263.72842292 361368.661854228
 -1324856.55195489 -1021989.38018121 -300487.642905705
 1200733.21335477 -1156022.36288087 -334442.890290778
 -1617963.97184305 -165002.738112366 -494941.089659463
 389512.616152479 864566.794450665 -1410958.60314587
 712081.862093762 1543672.73835135 -3728.07563256362
 77350.9349138731 1650493.41495798 399860.375691696
 -758851.583722881 1162693.09013621 980963.328586139
 1450988.75547038 -501109.722351086 -730424.997972920
 186269.444538304 -1551326.18970969 -669843.822955913