# OOMMF OVF 2.0
#
# Segment count: 1
#
# Begin: Segment
# Begin: Header
#
# Title: Oxs_TimeDriver::Magnetization
# Desc: Oxs vector field output
# Desc:  MIF source file: /home/martin/PhD/repos/ubermag/oommfc/docs/ipynb/thetaevolve/drive-0/thetaevolve.mif
# Desc:  Iteration: 1631, State id: 3271
# Desc:  Stage: 31, Stage iteration: 50
# Desc:  Stage simulation time: 1e-11 s
# Desc:  Total simulation time: 3.2e-10 s
# meshunit: m
# meshtype: rectangular
# xbase: 5.0000000000000003e-10
# ybase: 5.0000000000000003e-10
# zbase: 5.0000000000000003e-10
# xnodes: 100
# ynodes: 100
# znodes: 1
# xstepsize: 1.0000000000000001e-09
# ystepsize: 1.0000000000000001e-09
# zstepsize: 1.0000000000000001e-09
# xmin: 0
# ymin: 0
# zmin: 0
# xmax: 1.0000000000000001e-07
# ymax: 1.0000000000000001e-07
# zmax: 1.0000000000000001e-09
# valuedim: 3
# valuelabels: Magnetization_x Magnetization_y Magnetization_z
# valueunits: A/m A/m A/m
#
# End: Header
#
# Begin: Data Text
 673765.021422730 -1355059.20092612 774503.232977554
 -456442.078027335 -805131.527051668 -1425981.71571501
 986938.062832397 900146.780093470 1051517.49125728
 243542.191453674 -884826.027279095 -1431003.18044071
 -1188487.50033655 179986.998471789 -1202124.01270621
 217275.826634294 -1229987.89802579 -1153222.00198855
 -846464.242503975 5021.56051900066 -1474270.35176460
 -543337.435475309 1164305.58089752 -1113183.24884181
 367168.370073490 -1654682.70693473 -131196.522014548
 -676768.620269138 829829.380336936 -1320366.40147674
 -111520.609290059 312490.566133319 -1667307.05024037
 -78320.2331095156 -1453702.15407800 -877847.360487384
 -756424.661274745 -1346502.63240164 710459.282964790
 -1052219.75190328 666643.532761719 1156901.03030967
 -1594595.76725160 56219.3458726862 586603.549437718
 -721420.248801853 827504.602917330 -1297994.20521407
 -520244.734268599 767499.174720872 -1424882.60332863
 1533207.69123332 -188628.393336359 -709713.678021170
 -1401409.88156754 954133.129851033 125221.061988488
 1474858.81970575 -626332.974045896 567889.485339346
 195865.926756085 1061158.95008770 1313612.66033209
 -1265505.85549631 474482.209559445 -1031194.24092464
 972588.358612459 121435.297036784 1389001.56707079
 989973.453617480 954336.185693040 999597.421870194
 -610843.017244956 -649891.101527123 1447243.02190024
 573130.448551796 336479.055295319 1564705.51040456
 -164060.322157357 88142.4802375197 -1689767.76921304
 -754745.130510048 -1392190.68583603 -618194.857826213
 -752220.388960270 1482263.70269850 356453.085405335
 1171622.74108056 -973638.649212766 -754538.225235822
 1133843.63917622 -508626.491981191 -1160042.10852647
 327644.704272404 -1659908.06486512 -165390.942793116
 -924206.595477510 -522732.794017025 -1327626.67754720
 -1434251.44916610 -288171.700027323 865956.033449908
 -486671.368254548 -1352499.48192721 907687.242781283
 1151814.96814816 -1246890.73125329 -92659.5028288472
 146800.543114454 -8652.65550373259 -1693627.68402445
 -1521953.14119057 574928.320076963 493068.010312615
 1413662.34538416 849208.251295446 412800.338147504
 1407445.11995557 716514.067744455 -629051.528125908
 1181685.10837574 -1208738.00256590 -180479.211534178
 1343745.33479914 894234.171787938 533566.979124720
 1695966.68513190 -73458.5594312588 91108.9620674092
 622205.332095414 -904865.957549525 1297720.35646360
 1553573.27515659 -489679.366616470 -486440.332033971
 -1660682.37845731 360171.807424619 -49094.8777149171
 1181304.82705830 1091181.16512276 551219.167346449
 620984.173314382 -1206301.85051789 1024311.72107429
 -485843.593611779 1088582.95681866 -1211999.64879134
 -1469926.21563745 696877.078448815 493638.793161981
 944626.547247728 -125725.515420381 1407790.38958473
 -973261.041797710 -45938.3481053212 1393073.08232274
 199783.376127761 1440711.10418475 -880021.657064040
 629128.589897356 28794.1823666788 1579040.25041656
 -771491.393783811 -1470683.22752884 363169.207922235
 -537739.968109732 1562526.36389049 -399183.026749014
 1212478.36562332 -1169500.21224178 228397.606077284
 -695018.730105967 -1186666.48987956 999385.614564677
 441500.560881683 -82035.3005964094 -1639618.08485916
 -948802.459996922 -704134.434241549 -1222280.07854956
 210320.343311703 946833.026971026 1396163.51915746
 529879.905664767 -768462.179160522 1420807.22294496
 -530844.841034336 1553310.67782442 -442074.306993610
 -71191.4718505060 -1444224.27960900 893950.784173060
 112698.489177639 -1043987.22742467 1336932.95251154
 1693341.32057725 52309.2972716190 140921.642924867
 22047.4555795271 1235960.44392486 -1167011.43557187
 -698250.132777671 398139.922836772 -1497975.75211333
 -744850.739179489 715300.552561198 -1350386.05437461
 -178723.073558669 581360.162537509 1587475.48780827
 -1261697.17155789 1112597.27253274 -245453.776576231
 -460338.134777882 -1581045.31301047 422355.916114415
 549811.746678002 654343.744971727 -1469537.78673134
 259006.615373214 718282.438283470 -1518876.52955942
 1073000.31190143 682257.854646624 -1128359.22933808
 -187289.575860194 -1645132.97100019 -385305.232902687
 -339518.244216119 -739379.927243881 1492663.62085811
 218438.354942763 -256682.765215578 -1666252.87490560
 520112.389830029 1595326.37851221 272794.516016030
 1600594.52502729 -214860.241927593 -530972.921052921
 452796.989466919 -1605826.41182246 -326031.319696574
 -33760.4144659416 -1479845.58751975 836012.722100210
 778113.768059378 -1053843.43172076 -1083491.10996605
 -1025166.48510424 -352311.436545375 -1309545.84856673
 601456.647705589 -1429834.65104390 -695573.699621341
 -1202883.44300262 -1020401.11682274 633918.751368874
 1009990.20894570 278996.500664391 -1338686.19566008
 623567.843066040 1581476.90764240 -9692.04249828451
 1046537.11535599 444973.896182263 -1263629.01909490
 -1535949.61289380 -380726.391759688 621213.490894262
 -1411647.41252739 646518.448780214 -692290.024550087
 -527495.395804344 1421797.53828339 768271.024793025
 -20058.1337834887 1120274.32111774 -1278508.16059707
 -1315494.15172126 1017982.54080999 -350979.605380731
 -181623.785036769 -418374.355502066 1637673.86843875
 1675820.87049565 189868.522611019 213481.507706648
 1663400.56955462 325796.794648861 130211.342831218
 737140.100404495 839088.357495613 1281622.09745735
 -1217456.45444357 -789597.564325203 885627.160799277
 1694776.54709671 -92020.4458292426 -96253.2750629341
 1589657.08816990 89836.3838686052 595751.429846871
 -1261264.38177408 -1124450.11055338 186612.186484530
 1447891.64222973 846699.290842496 -276965.888239173
 -1414639.69106131 -905492.751771847 -262445.081803040
 -1336846.37091611 -938491.070196170 -471249.712711288
 429147.789533902 1120475.29609349 -1204311.95526009
 1151497.22709490 -1247057.88645367 -94343.8595058252
 -719224.860537975 -369631.703380161 -1495355.47741679
 -1540243.16749936 578580.689592943 427662.683199841
 524463.665728418 -1495384.19990935 615438.021243547
 60328.7692477892 -1299897.61902398 -1093904.30095911
 742285.666358903 839573.415169131 1278330.34465249
 1450938.23610455 505266.228903629 727656.699920584
 -958280.414020012 918755.369120044 1061879.09849414
 -525314.288932255 1588547.47469853 -300934.907367910
 -1090074.43278724 -412958.608255090 -1237417.84327348
 117543.838581157 1076454.61726107 -1310507.11672578
 438506.918973393 -823462.373526044 1421133.84359085
 823908.007215063 -163915.563917776 1477940.21650147
 -1610020.92511606 -152421.822291542 524023.099469616
 -138857.331643219 295627.093925621 -1668329.48268201
 -1450248.13359057 -816492.632624511 346583.513582173
 577677.508839061 1508815.64563264 528927.257073828
 -573993.245626153 1600085.69292237 16047.7188628639
 -1000706.87880556 1339833.72937670 -305665.373138288
 294562.000829108 1537611.19184790 662559.469309459
 -69766.5710667571 1456697.95671976 873592.404070729
 73042.1631408175 1583560.74056275 -614003.439202145
 -149929.709982699 -115585.313754861 -1689426.26868079
 1086912.82712963 -1289448.06133246 214345.989808596
 -146266.468419550 1251373.90190405 1141345.46823016
 -666685.988142956 570566.748299443 -1456016.27015252
 -1486184.65218460 -739470.819366493 -366657.997207715
 975303.288337569 -949490.275278397 -1018455.55274134
 1530321.53726535 351570.739200762 -651547.394991059
 999716.259569474 -1086018.77014695 843285.616645354
 185038.559356482 -1676293.80022776 214008.941096500
 -522292.647135666 -1559226.76616496 431303.005348662
 -77389.2841433537 -770781.953006100 -1513243.56255689
 -1334996.96582719 1016043.28431098 -274661.875109645
 287328.898912962 418216.891081702 -1622509.39469188
 -769171.556762859 813682.001733093 -1279178.14096498
 1165484.56218436 970485.897683840 -767986.235362803
 -1016545.81099211 1268570.81898432 -497355.699048313
 -475086.877958539 919371.837129586 1348720.83230170
 -534628.593703985 -1205384.88519614 1072948.99474989
 479225.247328509 -83285.1702618585 1628928.09624531
 216990.399506864 1067518.05179111 -1305113.16582968
 1007455.01649253 -292764.419074518 -1337655.92910434
 25515.2581191917 1581998.78968595 621794.822296954
 704769.670981350 928448.013564898 -1237450.60385142
 1178586.28773372 148172.153226070 -1216132.95957901
 -661452.210681183 -975860.417506297 -1224817.30006128
 94381.4267765053 435369.301735904 -1640593.09927405
 1634043.40318514 -141854.928764457 -446966.817216178
 1097661.17971642 1201783.19681726 490771.925023478
 -729510.818361522 539822.360521980 -1437499.83825181
 -1448473.19334816 875999.344368237 156686.173028118
 177538.985103263 1338487.26930798 1032923.87844844
 739282.741088184 -520849.981760659 -1439505.58360468
 -1208589.92787288 1147339.17782800 336040.469683605
 494801.835233508 1235618.85776438 1057552.44890578
 -996656.030463839 -197423.911638620 1362974.89193799
 1012640.74364578 1321912.12571626 342209.082569159
 -1558978.14628208 -465564.207040810 492785.053078264
 1147163.70039763 -1247887.47880912 129585.048217186
 -329380.980640027 265392.906916243 -1646534.17047784
 -630390.669900400 -1072250.26605481 1158830.00058158
 -947920.266043381 -1378261.06623728 303057.094486725
 15900.0722219726 -1527994.69422531 -744969.396769179
 -498125.145700573 854724.779505867 -1382503.84828377
 -352196.441144579 -391036.967720051 1616492.42396041
 -1149893.26121204 -976091.659845007 -784213.337938188
 1289907.70499860 -935183.419713677 -592933.456703095
 -1386738.31959865 975957.975738548 120261.642051886
 -1494558.88948480 704248.569495552 -400409.388283339
 1055219.59520168 605671.500676049 1187296.77805139
 -1029044.46897836 181941.792984428 -1340882.04732208
 -1087891.21797183 -1295599.47152554 167076.950063436
 -309354.034508499 -1436162.61322286 855416.290302093
 870983.569831362 -904414.319401124 1146046.40392351
 -1501279.34191730 -79753.5507694125 793599.211612522
 1434365.14582867 -819772.786763166 -400710.876461373
 524491.749461956 -1599022.91603359 -240902.716351993
 1128290.59247123 -1254242.30530720 -209371.866588109
 -555503.037181573 945371.421349378 1299110.94652378
 -664578.872467519 -537145.883525494 -1469628.94027078
 1672272.58541355 93206.7825730051 -291233.404259647
 -143168.633159141 -1042815.14120896 1334930.45651999
 1351499.08218105 370087.377512846 962541.201128270
 1650685.17673948 -367714.307553951 -173276.182185205
 -959043.543827729 442641.241455795 -1332030.10942126
 -373079.865677173 -417161.707553947 -1605237.52870937
 -1222511.33111520 1136002.89742989 -323980.651159668
 -2275.56895739954 1551236.33548862 -695457.154140888
 -346969.128648155 1586227.91941945 -503481.292025205
 1588287.30385196 -150015.481427381 -587229.764023247
 144493.144811011 -1413344.50209058 -933583.980964199
 190814.426378642 1173209.47541604 -1215388.57221870
 -390524.876614086 -461460.979300900 -1588881.39435523
 -511374.131219090 256130.396941086 1600904.03137812
 -724526.689229874 1466672.04010219 462530.218878812
 43576.4555505650 1157263.53525505 -1244524.89026562
 1434275.65242527 141672.206971729 901544.418557301
 -393659.222878840 -1376690.95872218 916381.154550353
 648858.865163538 1525521.94900272 -376516.873738237
 784948.785210876 -1395104.88672042 572309.146916931
 -240681.900004019 1656142.38345354 298771.867382614
 1558320.15401387 269989.796554834 -623493.229594725
 -1076003.80170999 -659019.022508732 1139258.41962098
 620878.045798993 656293.191611437 1440065.86616352
 1473108.51580082 347301.299919300 -774166.072460855
 -683713.232021599 1218106.49791587 968892.551366612
 1027978.21612452 -357787.168236308 -1305851.87882045
 1420027.47585232 -484879.549822159 -799008.003707569
 1292130.58129563 266552.963700659 -1072076.52638373
 35138.1118866903 304075.989053149 -1672215.02982553
 -1328802.71503694 941387.195642451 -487927.753249291
 -1494854.54804535 -806354.067263480 -72131.8126471414
 1650149.18847187 370557.136555870 172322.558979211
 1346613.27399912 876834.191065525 554792.295970156
 -1074138.58141790 -910144.875101996 -952818.248269368
 182156.656171909 204875.093754725 1677750.02565080
 1020147.37707721 1188766.24365596 -660404.532833175
 779879.243952571 -588591.410414050 -1391168.04033113
 1326216.26882035 920314.743729432 533077.087099477
 -186346.946038587 -991934.526030155 -1367969.55805728
 598158.469638906 -1552889.03405797 -347479.629765181
 -1184033.65121436 1168914.46465354 348859.982107044
 1683665.12088345 181641.486362207 -149258.604953487
 879346.139841065 -850611.198005765 -1180343.57547869
 494133.471395544 -1625742.14209762 52863.9750155498
 -1497090.04342356 -712000.394971364 -376532.653886306
 -1087494.63640133 -243524.009619933 1283764.57052567
 546278.065227154 -888175.042859285 1342656.08727387
 588121.786113879 1080512.05648459 1173288.73705055
 928360.830296900 1406198.40157877 225282.542971615
 844905.941619755 1187840.86615040 -874738.833320384
 -1060017.51996227 -1099607.50840440 -746475.843436145
 773636.568036319 -1227431.93657362 885944.299420745
 222452.387697262 1674851.27478681 -188117.363772663
 7886.06434568413 -1517616.10734753 766015.117806736
 -79772.4169287540 388247.358669407 1653148.61702860
 181638.975858419 1645636.36174542 385860.398784829
 426592.233473766 -253893.571853005 1625901.94061991
 -362125.977147354 933254.756623845 -1374008.85583538
 256067.450053670 -510789.498576144 1601100.73048742
 796816.113509364 1153593.22619258 -961408.731879646
 -123063.120066632 -854941.019501358 -1464216.96536184
 -579272.518126661 818852.242540846 -1372561.23893582
 1053960.12095154 597501.771250680 -1192543.37312993
 -934096.432443110 1254315.12120523 666451.372279309
 1084028.39266383 -1043662.63136467 -790980.882064570
 1558947.62767803 -380288.248422288 -561304.856801487
 -1080065.44952686 -1277029.80058868 304390.395950313
 902961.547652512 -696634.727595226 1260698.41745332
 -5666.31950075696 -1175582.35627941 -1227995.93502091
 1675868.09550069 -961.392993908022 285421.096288290
 1256108.42174920 311142.390808039 -1102443.66996822
 -1662073.25722149 -355613.324183173 -32429.1734788938
 -467995.068008873 1594398.59184490 358989.897688447
 208078.430292769 891816.625850562 -1432259.21980046
 422136.953937031 -1069484.01662815 1252199.79647726
 582624.037351425 1108956.29263883 -1149245.47948516
 80052.9289754280 67319.9335906848 1696779.17098950
 -454495.295543163 1610160.31234393 -301359.909214267
 -213693.925837374 1257027.38673786 -1124374.07256269
 903180.332805599 -1047340.23207255 988606.961696805
 -262079.667645573 1214075.01952948 -1160748.07549325
 -1176540.13551064 498037.648225585 -1121477.51225004
 -823851.019054544 -1307665.13361546 -708012.285719140
 -1651012.28085650 -136372.772567237 -381524.462339345
 -574090.264748298 170796.263538604 -1590989.94474587
 -278848.993677930 1535801.52758247 -673466.336649534
 1520917.91410370 -536547.691922739 -537517.695383905
 -990218.594104497 -427980.602081057 -1313887.26309834
 1003466.73810476 -235898.049726500 -1351816.04356977
 121189.888866871 431839.568488614 1639764.49465282
 -522213.852989926 -1114876.95802453 1172323.35991884
 -1657995.93980122 -373342.400330673 40803.3787573356
 -232330.192675493 -1560513.15709206 633104.547538508
 -149523.826917548 -1264312.21304687 1126568.79644540
 1367438.55766106 -996506.630191536 -164579.242330688
 101053.063773476 122725.850977776 1692550.33715508
 524992.057146690 -1614967.68890831 79137.2460667561
 514116.400644371 1112519.16470717 1178127.93649405
 909509.832318619 -511441.737535078 1342095.08382337
 -344065.328158300 -222706.222264733 1649854.83862184
 656579.741010171 -186495.684410719 1556959.34545228
 1592512.00502542 455371.580830901 -382808.355736227
 30371.0075536249 -551545.572449406 -1607754.67140097
 -122129.540477286 -873425.792659871 1453345.02443820
 -1495388.52523686 -511453.123530057 626281.774460417
 -1565239.76837873 -247939.625119663 615264.503917792
 -1490339.79519467 674758.900200794 462155.516529786
 1284481.43493380 871863.290410624 692792.787307120
 697704.768626224 -481268.973357950 1473630.96843111
 58896.3241010202 965744.221738799 -1397808.75701417
 -1191261.21435566 -1076988.69186955 557666.635864994
 -55073.1857953075 1623894.72981729 -499932.846168333
 1467686.73162939 804640.452324440 297404.438907959
 -567090.467826964 1339083.13840545 880491.197990087
 -974751.885300798 -429379.303069810 -1324949.87686245
 -500243.845139683 -237363.318620808 1607300.45429384
 -1305245.96857518 893375.469105588 -623067.598835473
 1043111.01492728 -485752.720610132 -1251384.71500863
 1662170.45316385 -256195.047439566 -248099.742636952
 -1465498.70164535 60431.1234693036 -859454.265677953
 -1545624.74037179 -182148.095774253 -684007.480336618
 1466194.13100699 -823886.987889489 -247961.693386401
 -850815.928906286 414042.765177049 1412331.70456656
 1228031.66938869 518533.789176115 1055017.02756927
 1657471.55695213 -256112.069602890 277839.244345393
 -686889.738691489 1426403.93924948 619317.599438207
 -165406.105021881 1394161.02853215 958621.847729157
 39730.3523305375 390122.882300769 -1654154.05443660
 -1320549.64714194 880757.836905942 608616.679168465
 -147531.361935499 1160413.39553857 1233562.01656022
 -31680.1099092038 -299065.621031823 1673187.41477247
 -665493.960917348 -1519345.43894100 -372434.189020990
 494522.170575092 1596390.15769457 -311426.214737328
 -410657.506225847 1372473.30775338 915247.197255944
 991095.822965639 1248221.64741844 -591330.524001641
 758861.612057740 149299.132681685 -1513882.03725575
 -1682475.44931244 -239078.578674682 -46019.5141193646
 -1448783.49560378 781031.104263511 425460.688006561
 485962.695256711 1165756.47202109 -1137915.68525958
 -831599.209832400 -1479368.80179440 99552.5111864078
 1679400.64075371 -235820.338380765 118331.127950316
 -143340.719510917 -1117123.52135409 -1273376.80054552
 866507.671214754 -208874.188098473 1447596.63900970
 -1069518.14969166 507469.239217347 1220084.38180656
 868388.226117914 -939374.812045369 1119587.80416478
 -834340.648189739 551856.623723863 1374528.99192066
 317688.831584225 -872598.518484155 -1423954.22392221
 1400219.83698138 -515666.842794274 -814537.976626272
 1479843.22666890 -594580.547658389 -588674.780187191
 -1682398.36687031 -76956.9174851838 231545.606745830
 -1099814.18501735 1002780.83957329 -821486.059662194
 1150926.87745251 -1250879.52005258 -25840.8411328679
 -1101322.12153457 -1151143.80306559 593260.085697914
 131321.749127827 7064.40156071296 -1694905.51135944
 1244684.93988830 493172.694499469 1047635.47754713
 1179004.95890154 -1093922.45464923 -550709.515170910
 133233.246706019 -1640553.55515534 425244.558624029
 -1010287.72439919 520044.763014959 -1264465.16693384
 -1135351.27019488 -1049740.05199660 706415.824073222
 -361035.098244872 -1434800.48314805 837258.162930314
 -1671418.61563533 -300944.553218732 76106.4202000101
 -442978.724077175 -997830.935364643 1303112.91699694
 -1528397.55399686 -743018.284940633 -43871.9179006547
 1520351.43994671 -205031.046159130 -732457.349722735
 -1658162.79895754 79625.7259553887 366272.952754316
 1316073.21760973 155510.820553554 -1064785.26970518
 1615056.61756756 452456.711446878 277263.496187101
 -276439.141416640 -423914.138037432 1622922.73527264
 -1008169.08073583 -1068877.74553547 -855041.209385425
 -74389.0162259269 846576.239158800 -1472336.55987912
 -1216009.22961907 701556.387521725 958717.992221230
 -1250026.88408767 -583971.717620012 -993181.666201109
 793725.084001456 235922.211977820 1484702.39473181
 -1038274.74856290 -1339178.38624888 -136333.401265108
 1220665.93274571 966183.292439454 -682982.083253216
 -47596.5590873585 1667763.49425547 326036.032965412
 -291696.470262437 -656531.508862559 1540739.93493616
 -929840.783084422 -86355.6339968364 1420541.73560299
 157528.540503860 -89415.1459588876 -1690322.36292367
 -23683.0792651991 928062.534008046 1424127.46786483
 -909786.964669843 643275.722620753 -1283933.02925175
 -115994.385460101 1001046.27672044 1369106.15162079
 237188.963829989 -1346543.91185295 1010228.13705075
 -1395078.82791258 922671.017790077 304028.381636146
 -402465.699936120 1611366.94779643 362653.994772076
 -214611.071760347 -613828.649191275 1570718.45895752
 -631749.573142206 1578079.42004830 23618.2314039938
 -1552241.94553907 -161208.258437280 -674208.306030647
 82284.7520382313 -559533.472320790 -1603169.20907765
 -1499277.26623914 801202.206815245 15578.9195027626
 -355081.907512949 1662190.00159166 32268.2129297634
 1218144.89477728 1134537.93695717 344886.481226820
 -984945.891900522 -1342820.37818888 -341635.803084162
 792744.637416283 235896.328498060 -1485230.23873367
 500948.548302555 -467389.826884364 -1555826.88679640
 -848637.777155051 1446657.85515177 -277479.680901159
 737510.053936849 907594.930336531 1233835.63036958
 410559.524860680 1549266.57127130 -566757.415202879
 -1469019.84368095 -803470.710722261 293965.161002231
 -1686272.79657042 173527.156880071 127954.606684184
 -246579.118303114 -335806.579889089 1648160.39247400
 925466.321548201 -1308047.64273448 -567911.482554113
 -502402.110207356 -1306109.16895204 -965231.038891009
 449064.695201722 -1414339.36787752 -829448.643374132
 906301.884035801 551093.737692382 1328500.12693616
 1471444.96789100 777896.943630730 -346014.525068291
 -1117873.78159298 -674656.604185212 1088667.38485925
 164589.200780603 892816.808869843 -1437285.12856214
 334507.614604367 692460.793210107 1516114.34451315
 597023.408706859 591927.236293566 -1477560.55591299
 456419.284419045 1155640.56918198 -1160248.38361066
 843316.039723465 -70742.5864494719 1474385.81911505
 -1466363.96414230 596421.816987451 -619723.923119218
 497354.553666907 -1519545.37308081 577598.742290437
 1641159.43358634 360741.578883896 -257800.750221763
 1389200.63652922 -899234.249292608 389229.182315465
 -144620.247607659 -1687488.77182598 -146514.944436163
 -388250.433927279 -401324.343044419 1605677.54304382
 -333321.055402484 1408551.97912188 -891559.530338387
 434212.255265058 -307335.760302743 -1614622.07584833
 -86491.6723749287 1695567.27637964 -87010.3550178123
 -570509.506213527 1229904.12328483 -1025599.70302597
 564525.201299724 1445322.79074262 694516.614385479
 -305144.028184378 1470450.58647445 -796656.886495289
 777415.061040760 -1007276.45492685 -1127395.21296526
 1154997.75894263 -654689.648080482 1061772.87662370
 -1091183.16710271 361266.635705648 1252519.74585538
 1468591.18691041 -430890.531227263 739981.942906563
 815908.189508386 -1393612.50624381 -531166.648740291
 -493979.546819816 -460021.700419927 1560244.93028064
 45468.0577999829 1638450.91157365 -451011.381323559
 946129.976305076 383771.888937267 1359248.76501635
 736057.666030142 1511121.34794174 -254423.631121425
 -1185265.30824627 300071.318943959 1181144.93294223
 -1293223.40707661 472750.142207937 997035.868177037
 -1567823.24304672 622394.606335803 -211081.104238576
 1041854.65070993 752871.699748488 -1112530.04027393
 220942.439605007 526948.762090852 -1601096.32455774
 655601.489306077 1484845.64788610 -505391.026011897
 1341944.83544388 1038259.09436541 -105840.028311585
 372950.125126778 1327464.37401246 994357.350199432
 -886108.523945173 548278.129212231 1343206.15574053
 -1117633.18145389 -1278453.88984662 80322.6197860334
 -1537667.69647964 -493621.319679062 -530957.670592769
 868511.738722880 1013677.06255908 1052685.22006446
 1292737.14685950 -1103011.55838042 46863.3247726939
 -196882.606059644 -575473.979957949 1587471.86993109
 -135287.461472168 -348228.210027148 -1658443.37151128
 -1055331.81310774 1201449.26868343 576883.366914641
 -926614.799110768 -1183388.52205065 -794340.367819540
 -606005.578969859 -1466545.93353486 -609918.242955372
 -298911.380755703 1503373.21028367 735201.317365582
 -87727.9977799967 1685635.53872048 202328.023289002
 -118088.724039490 1439614.34131357 -896418.206831508
 -203840.083495873 -1635931.03864707 414944.402482442
 1092099.93349293 1146461.95479094 618823.659439164
 -856341.833884153 1259369.90668029 755424.451343748
 1061556.59617885 903398.446263257 973123.240087458
 1651745.78061008 -242627.014574903 320730.428920073
 425646.118131005 -839564.785847313 -1415611.65313272
 1599457.44723820 97823.9457092895 -567596.996221913
 636349.890532396 -761281.383783035 -1380401.92390651
 1650521.12428570 394047.595544132 -102501.271858224
 390162.247730410 -294904.851299840 -1628129.15615616
 -1299581.65659870 -650770.500984747 -881807.956915927
 1608354.62482854 548043.214115868 53329.5064123781
 856464.474648291 -894754.662887202 -1164423.76174099
 503574.345176041 -1575945.59322608 390907.106704156
 -1557705.12411445 661199.328365326 162389.022032951
 -945837.718898002 -1339721.24352768 447814.692870247
 890020.180663731 29283.9184428172 -1448104.46105657
 -368249.922638494 1657855.06954354 -76867.1767761017
 -1457500.87875987 787684.815944507 -381108.671043656
 -913218.112632969 -773404.861533965 -1207426.02212919
 859353.360960623 -1157316.04135404 901183.322876256
 1518678.21136797 -633779.552475663 -426544.217145089
 1018490.61095400 -22936.6727446697 -1360937.46529440
 -406474.986730980 -1064943.76601887 -1261218.79956635
 1236934.96217064 1166034.50633298 18852.8353496917
 -666265.160095102 -961539.616917004 -1233504.07439236
 1592763.17264397 504748.580867716 -313583.076681654
 -812989.401304609 1098234.14759299 1011400.01504205
 -1045054.44039832 -1073416.73369679 -803515.856983216
 1593258.67047596 271637.464111977 527010.338650005
 891021.681509430 1154323.24352292 873852.511893649
 1448335.32891985 710289.083144916 -536483.171560649
 90173.4261499509 -1535055.93783318 724894.489522079
 691324.137849589 -1455819.04209505 -540982.303869532
 -823376.426137682 -1313140.00507915 698365.654898261
 -946112.842841788 17412.3685734507 1412291.50603921
 1513484.67125985 432365.688836762 -642202.507763838
 -6538.42930771483 1526158.79279535 -748863.531035956
 -933118.439143567 579499.055600249 -1297486.34793923
 77909.6034543074 -1104627.92422952 1289855.51233538
 61540.4153761566 -1644112.13002714 427911.300590367
 -716922.883227451 535317.469534696 1445495.34288970
 1536260.47673040 556038.220700010 469814.053383736
 903464.150171440 1432566.91714266 146644.322301826
 -1543968.33815351 -599377.040898414 383287.012072332
 181591.167062910 1266271.90115972 1119633.92248452
 1271613.45143396 125831.285725166 -1121234.01556720
 155479.012384204 1645702.88776467 -396847.932980725
 838030.763347045 576842.660370076 1361968.05574182
 -252150.458188030 -1071651.07817953 1295370.26099576
 -106587.924586662 -461184.613385743 1632773.02975905
 -1633167.74374619 22237.0409182488 -471453.746191703
 -1670407.57490432 -233875.700122323 212227.921335924
 -531842.341238388 -1611140.00845138 106637.691429216
 1007157.59511899 -1338430.51392251 -290236.693054565
 356017.660194932 1269945.57511673 1072608.81120321
 1278428.01056723 -1097314.61546713 -226985.586501319
 522207.701967310 921064.780353972 1330014.58127252
 -16505.1456274819 156228.709981695 -1692725.66304918
 -59118.7663850095 -1580133.49839218 624246.024192389
 -1591859.77974946 546049.427903223 -240442.225706201
 1641365.11629351 -134555.357223394 421681.646336744
 511129.468487415 636525.882064360 1491167.82016846
 1358728.17735745 685620.789260283 757483.909656845
 -1524796.23188875 720385.732942968 -214571.309801884
 1125062.58199709 595853.321125593 1126584.66450314
 -260249.532819443 1122483.97482302 -1249919.96021056
 -977713.133379515 675993.473461810 1215364.08234498
 175305.444405506 1681420.32049450 -179147.165732466
 -968211.625321039 -1393742.73748717 -100236.870935623
 -966080.714034066 1149722.61350653 796759.666375717
 -237118.226523886 -42230.4595339169 1682852.20234509
 -1123363.89096535 393933.228977320 -1213618.63020584
 233445.638279240 1593701.79534132 -543707.385911060
 795820.737149350 -1502157.17655456 -13898.6059987728
 330497.130960652 1318722.80197913 1020657.54196356
 -1115967.50089271 -1202298.35684626 -446200.849479325
 -49351.4718968397 -747998.672889137 1525798.94402169
 1300670.44244725 442560.533348041 1001197.57014625
 1283860.10379153 948005.783822486 585652.002243238
 1115228.95916673 1024144.94854771 -772911.051156662
 -1163479.07937680 1238798.49040933 41167.1229510777
 376426.738161209 1640204.42390141 -240899.063118860
 1172126.44453575 -68997.9570267059 -1229373.36881279
 152761.193831632 1523785.56196850 738066.107334208
 1291933.86523729 1049436.21503562 -345818.620702723
 1323365.37434117 1041850.11500172 -230764.867052487
 1178287.10191570 1222616.32219237 -82757.6834372572
 -1134828.78813069 1226279.32212774 313691.959973096
 -1426421.17324805 -838600.493700428 389963.906631184
 -1625076.91985111 -249494.024881743 432293.576306110
 1029005.25163635 -514453.376423887 1251593.35072973
 -890228.620489896 1253948.39624910 724642.272300600
 1050744.14782145 1300881.88926778 -306011.512845613
 -377697.726436135 559785.242563152 -1560123.36360093
 -1431636.74095369 -80166.0550811862 913230.335438008
 -1397379.32641403 -146881.032282250 -956951.921710992
 -854513.366269667 1287036.75618894 -709466.909083947
 -1275968.77246343 -1008778.32011341 -494236.777837626
 307053.611410242 1569015.87797295 -577847.085645239
 -863604.065481207 378825.547446310 1414453.68347159