# OOMMF OVF 2.0
#
# Segment count: 1
#
# Begin: Segment
# Begin: Header
#
# Title: Oxs_TimeDriver::Magnetization
# Desc: Oxs vector field output
# Desc:  MIF source file: /home/martin/PhD/repos/ubermag/oommfc/docs/ipynb/thetaevolve/drive-0/thetaevolve.mif
# Desc:  Iteration: 2039, State id: 4087
# Desc:  Stage: 39, Stage iteration: 50
# Desc:  Stage simulation time: 1e-11 s
# Desc:  Total simulation time: 4e-10 s
# meshunit: m
# meshtype: rectangular
# xbase: 5.0000000000000003e-10
# ybase: 5.0000000000000003e-10
# zbase: 5.0000000000000003e-10
# xnodes: 100
# ynodes: 100
# znodes: 1
# xstepsize: 1.0000000000000001e-09
# ystepsize: 1.0000000000000001e-09
# zstepsize: 1.0000000000000001e-09
# xmin: 0
# ymin: 0
# zmin: 0
# xmax: 1.0000000000000001e-07
# ymax: 1.0000000000000001e-07
# zmax: 1.0000000000000001e-09
# valuedim: 3
# valuelabels: Magnetization_x Magnetization_y Magnetization_z
# valueunits: A/m A/m A/m
#
# End: Header
#
# Begin: Data Text
 -1255911.82403004 -1090125.00015982 352580.450802471
 -948324.457762471 240598.911643187 -1390249.21741594
 -1403300.27074951 -96466.4797666139 -954695.013287379
 -713446.254431883 1511637.54765550 309752.105005251
 945559.985882173 -1108458.76963527 -875919.784636227
 1046488.32419764 -856663.184265986 -1030043.87093039
 1587661.28618661 567455.744712261 -217544.519897233
 -883746.373826928 -1449032.73978920 -96418.1817229665
 181119.841496270 -973423.286597876 -1381898.22639924
 204970.268303323 732503.297219365 -1520337.49827939
 1471657.76276720 840918.913140738 -130685.924296483
 -1044958.41488965 292748.795332562 1308571.76111310
 -1464968.66715863 -859727.960361434 -68808.7088690332
 -31532.0777886033 -1687972.55350857 199385.021182880
 -1670882.22490113 207156.085943156 235029.671671834
 1716.75695652824 1132787.69620056 -1267591.84601439
 -128343.220472692 529617.848187651 -1610289.71077871
 1134601.96582741 -487342.057306790 -1168407.50524830
 1014168.25084811 371202.681629862 1312886.63947901
 1553136.63297821 -691026.441308881 -15781.5307584379
 1484353.55958731 647576.402379749 517048.656531830
 -1073918.27289685 -935762.103142493 927927.168187561
 1010355.18037963 -786209.339311913 -1118506.72070344
 12299.3154329773 775088.121114941 1512972.94468420
 -106363.230642310 1635195.31032593 452573.927944817
 -1374352.77009841 878795.766367035 -478406.170882226
 1568585.93536887 -581488.465473222 -302339.755712949
 399484.653922950 1632812.39103061 -253644.844175812
 870006.390995310 -942658.512630296 1115564.34516031
 584132.922469169 -652997.339169569 1456840.14357276
 1398061.18481070 -724.978450527442 -967173.406340330
 -93642.3309544876 -1640560.40248866 435652.016682643
 -1033643.92126674 43661.1184534339 1348952.90902378
 -1616566.61578595 -525654.507963491 -19992.8733310267
 44336.1498227704 1362170.89197817 1016132.25855018
 837452.799488217 -1407807.07299893 454699.960241416
 1122599.85730070 55147.8988479964 -1275432.58137822
 -824046.649583115 1103809.83839547 996268.518007174
 506311.099138062 1119300.40167006 1175081.13835209
 1209383.67796200 464322.626814377 -1100815.88728874
 -744672.411804529 -880433.277858687 -1249119.78702454
 -863911.409044388 1359338.98565687 543925.178123131
 953539.927805873 76467.0217858284 -1405316.47704678
 910688.931887748 -937237.266881107 -1087304.91349317
 838171.386936189 905027.575529764 -1169783.66104685
 -1640970.05398427 -423869.162914828 132484.771414416
 909449.784750509 1422719.42756746 196902.309380484
 -1207665.26814323 -222516.374700876 1175598.17246818
 -566798.298900419 1156132.60876014 -1109998.68437988
 1413439.08383562 -490837.560115395 807012.048154101
 522534.662291588 605177.098602003 1500239.38290910
 1139242.79551449 387841.264620016 1200710.20913719
 68894.6967781136 49306.4541703854 -1697887.62712171
 512947.363424777 -275782.650911818 1597131.46979565
 -533283.008964136 -820378.930779902 -1390175.39982643
 1430179.24510874 -96034.7484016301 913982.852114643
 1397155.73711751 791852.126404308 557607.439108014
 -679894.788755876 473814.623304537 1484332.43546228
 675170.360524590 786223.769171442 -1347589.39186198
 -555112.627787857 1582731.07411136 -277150.351817866
 588257.684641493 -1434737.20034758 -696765.428533173
 -977688.271482375 1049090.95615172 912980.727905292
 -862869.074870183 -797797.519986451 1228403.87362469
 1490976.67083906 -342072.457862900 741602.993916084
 -899522.994761089 -356904.512288372 -1397668.61272772
 -60216.9456832977 -1694023.16155172 -129071.482438511
 -788298.459267090 162892.958897828 -1497348.13021510
 -1244831.16941653 -46028.4628513182 -1156839.11597794
 -411089.332162323 1252372.10153378 1073577.98053155
 -471183.997780225 1360756.22268287 903508.795012921
 1020325.68296843 -308250.983916849 1324355.25127864
 -226734.369508975 -676906.328305145 1542851.04542980
 1147367.30435841 1241900.56860798 -176723.644655957
 630081.581797350 1060895.96583491 1169400.25224683
 1564826.37982295 560023.999516868 357339.503799028
 -311404.241409043 1290241.66061658 -1062216.48247513
 879344.631492545 -734341.835173114 -1255983.71334179
 44424.3602012710 1002916.59988295 -1371927.39235717
 -1025608.24734287 1227575.36613190 575488.004608615
 1265875.91682706 -126615.093708050 -1127619.96312701
 -610762.684892626 -1513265.09244730 476442.759125606
 -325408.666526979 -1527893.12610545 670560.806302334
 1568128.04198725 68542.2138585904 -652898.467491379
 -939422.288356681 -1322626.15210422 508080.530928585
 -639444.680748545 -136028.001199351 1569269.53808200
 186850.081256718 909446.085544706 1424076.84645941
 -969513.482241436 1371821.77728182 261052.904843897
 1143430.91749521 371722.661538271 1201826.94253996
 576850.227541074 -740904.962599123 -1417146.30556686
 811378.473625530 1189459.98096146 903797.502888937
 1518028.30704480 14631.5297996701 765098.671640746
 -467591.515830134 1577193.10661387 428742.438736080
 387719.664928162 973979.291702936 -1338296.60418079
 -1364378.98916162 835094.176034263 -575402.199411838
 -283878.723410601 -895506.124053801 1416856.25670952
 -544396.842377340 -1596628.64957305 210734.509210335
 337296.831779891 1641537.87665861 285629.562136654
 608891.283124790 -745011.297989110 1401502.61191452
 -674130.870657537 -1388939.16982970 711614.749523425
 183080.105007284 -1620606.79921062 479703.322380423
 286457.803413180 -1434198.09259494 -866612.807464052
 -1187815.58260023 153288.951279596 -1206481.09771669
 -725456.968813828 272596.405338698 1513077.45545159
 1415913.43637717 -372662.501748946 -863893.396477147
 -1591306.93124067 -181456.260118479 -569926.202458896
 -1234246.29782278 1165745.72426542 87595.5630592266
 1236239.86251457 368215.751616194 1107306.71568074
 -636925.772715763 -261696.950013041 -1554297.35456389
 -1578771.28926453 556207.476113103 -296840.798593962
 531617.260763137 -31923.8928623303 -1614423.72168003
 846959.678730490 -1111989.43536765 -967542.659646328
 581999.209206948 -570576.113876674 1491884.65330128
 -1447494.36349368 -322656.553152057 831055.242665656
 -367546.756137810 -1656671.68348365 -101726.669050062
 -118127.037201428 -754987.017544451 -1518565.31187215
 -338809.899903728 -1323059.40590751 1012285.36498701
 400640.949779295 -1100735.45169892 1232017.97662741
 -325820.643473402 482051.706410530 -1597331.23071994
 -223134.062611820 -1418873.07294292 -909401.117758197
 -880464.604334499 1414414.59162548 -337954.795070312
 -1311613.13063890 -789058.251453557 -739633.741353577
 -65405.2343369362 1097980.08257261 -1296210.58998728
 -1397432.73304824 -384874.904450332 888286.589187111
 1402490.12214832 -719802.885809132 636321.666185625
 37218.6246164824 -739431.326729809 -1530312.41484615
 1091722.72599666 -818632.166240309 1013894.89886236
 -445688.627883232 999208.060597165 1301132.16031778
 506083.494762951 -958652.891726902 1309528.20875007
 -22709.4419512627 -1636612.27099611 459330.551641411
 322066.059977609 597428.584222218 1558638.04000953
 -916767.325321144 1044818.69061972 -978719.354542055
 995119.912915112 806819.442583704 1117487.69388694
 -949343.087976773 1367456.62223628 -344688.392048348
 -740000.818652297 765879.553138243 -1325076.33684958
 1212621.23496138 -1177531.85753916 -181572.203272198
 1159707.79569702 854244.744029902 902963.867437038
 -1094235.39881139 -107939.845868432 -1296533.02374524
 -1187207.24593309 592708.024604054 -1062655.23702371
 1119560.43004397 -860158.678947270 946948.515237998
 -1300154.44504554 1090336.52085214 103753.025615438
 335397.962779660 -1497839.06250956 -730743.696095786
 1140370.92176885 728208.506768851 -1029206.74864361
 481077.705340300 1536676.65802260 -545150.520602344
 -725549.505914146 723017.229762929 1356769.69303330
 -691351.598623104 984257.391299006 1201361.87502124
 1695090.77918368 17643.8703554912 127890.359939005
 -312795.057835279 -673379.162493802 -1529287.33575904
 458468.029086036 1636086.74235535 -55020.3398302015
 -1554485.96898819 -371533.131888986 579255.128702036
 -832027.996118662 324177.259128084 -1446595.49229872
 212558.394206763 1506052.60754794 -759357.934277572
 -307153.871450664 896953.719819141 -1411074.24459363
 -1445170.31397267 -496236.983376680 745138.658198155
 -109037.943615208 -1049577.71096230 -1332853.08849224
 298379.803121409 -205574.025361146 1660936.12555873
 2157.87377830418 281843.734341897 1676472.32395676
 202806.170096705 -580683.696882588 -1584826.83645422
 -1141246.38343050 1010559.08331359 752547.029387002
 1591029.26475951 150765.182055326 -579565.128832510
 -271759.619456274 1161666.29605300 -1211064.87268332
 -1087817.43221118 905425.998924991 -941730.850428162
 -1209586.72548768 -999256.399413330 654512.491672617
 -1665310.57065465 218207.120067426 262918.915290967
 -101199.620612152 883721.979529535 -1448721.53973231
 -1467659.35431088 307750.874623952 -800790.496242293
 679088.933684475 -1299354.51125413 -860532.436478039
 655859.101482268 609046.926099783 1445306.43145711
 7821.72551522691 613143.007954658 1585558.09493259
 -13997.3713615588 1637037.91070403 458160.400419702
 574637.746030406 944183.565339298 -1291630.30925272
 992630.857857083 1119311.45482464 -807357.323078365
 422412.024598475 -1585427.57401211 444957.850854077
 993422.474882237 -1157086.07390531 751174.815853974
 336861.828582540 1527665.91730194 -665402.850578542
 460144.235117563 -300654.985224316 -1608686.99962045
 -1635248.00060471 -186821.799191044 -425513.327482596
 -947510.999363487 479479.842834322 -1327524.75924209
 70325.1534219476 1223797.67714906 -1177868.25163120
 -1429405.43032319 -55262.3460605132 918556.579025184
 -145151.674588975 -495275.428697207 -1619763.32872825
 -860250.305441116 -1147736.48511700 -912507.738443760
 -1090134.98562126 302302.663414192 1268943.97544463
 749007.820218403 233781.839007697 1508089.30007538
 -372360.436997526 35294.7884396841 1658343.14388428
 505959.407853005 -1597068.78118842 288749.693953707
 -79187.7917806862 95091.3188710042 -1695490.17534997
 935222.752059707 782192.272683893 1184708.25631607
 1600219.71012204 -192772.977489864 540495.567499523
 -1212973.01036224 -1092378.24280951 -474769.681813375
 1246494.01185085 -566655.420642619 1007548.66516527
 1255349.29911035 1093000.51315383 -345612.522152502
 -1130546.22367935 -1085445.93445942 -658538.047108797
 -457963.838829737 1604192.80049447 -326855.596810013
 911736.791608024 664471.881959101 -1271696.95325342
 1116124.22558467 1192878.06637189 470434.513861251
 1535009.56946095 -327104.980741108 -653259.483848232
 759417.306315624 -482787.871335706 1442290.27111725
 -577085.086216449 -1337385.22068424 -876569.207057791
 1644100.86397207 106123.624611735 -419130.200994356
 31120.7842416822 754721.664727504 -1522966.41643180
 1202762.38158737 249144.654514998 1175282.77217224
 1077624.30819341 -1217114.86644008 -497350.231005484
 609160.876177714 -475174.569066764 -1514309.13483562
 -1351165.58585339 1023665.45650475 -128298.841633096
 2382.45676604852 -1440156.88468428 -903295.340072234
 1138833.56032563 1181150.22011068 -444907.045806795
 -1004966.01399693 -1237636.21243224 -590169.396349480
 1584530.46408408 461712.933721363 407534.508016059
 812150.394683823 -1334068.31184849 -671322.184749337
 -225089.171071859 -1685025.61195735 -4853.05202479708
 -1059984.10502557 639105.411778421 1165323.11816452
 1426952.17825240 -691096.344858937 613346.006022176
 -477264.732411730 1553987.32514537 497334.664470013
 -123278.750372466 -1504988.78601590 -780904.029745654
 -1616726.02402877 420699.068601017 -314975.009971215
 689091.748759102 -1085337.16798890 -1112293.03404002
 1284274.78069366 34470.0753954161 -1113305.93350457
 600749.805506026 989310.735225320 -1245136.11318298
 1254675.29401885 500341.319660444 1032205.63378580
 240791.514120043 -1628781.95713154 -423188.826471727
 1114085.52785269 894482.749777285 921256.775812288
 -340120.215759516 -1656844.43650437 170835.453159557
 993780.277201052 26203.8374709075 1379026.51154646
 533838.680212438 955796.769145574 -1300564.80023101
 -1306693.46948480 -906980.214451615 -599949.220683775
 -261330.287340707 1192556.04954949 -1183011.64389931
 -1215766.00926809 1044669.31765817 -566196.986438410
 1096102.70111780 730748.154890491 1074507.33023391
 -422108.399654650 513980.811435712 -1564496.15672806
 938552.195677202 1311698.69454002 -537183.684349703
 1656529.79933644 -48100.7423995477 -378939.761031990
 1327667.76196936 973798.349467413 -423101.747103231
 -1609864.14529576 437091.033906173 327549.785177752
 -234627.961143309 1678138.81020534 -137112.557894379
 1480160.62467303 235950.892184864 802154.412594420
 -331919.139534577 189104.732864910 1656523.19175396
 1245397.63684107 -854573.608923834 780185.024902151
 -1192656.08295633 1025244.11602942 -645326.251081059
 -1631769.50895535 -467499.021397348 93663.9452304489
 -192548.651693069 465057.563090076 -1623775.37847570
 -110849.265834291 931646.864045868 -1417655.30400641
 -62122.8439111755 -1615476.09545505 525716.403850697
 1514693.38564390 -770703.022530122 -41482.5089591171
 -1270190.89024760 -739439.536474961 854309.238057100
 123537.119577941 1687059.52117572 169022.933641332
 871670.703197655 1457469.39243205 77286.1909441285
 -1457163.28339556 7384.69329992575 875568.747631347
 771003.033614877 224354.476191381 1498405.61637013
 -1648151.32002605 -337704.810451740 -244034.192879049
 -188684.522409698 -768131.270260064 -1504783.20785809
 -427546.372460822 -1644615.74173176 -49428.3465602225
 -550295.779516650 -1166864.84195239 1107068.64993170
 549175.215449542 1151677.10674044 -1123408.39615249
 1079569.07860410 1249261.63498973 -404815.972837883
 1207860.81284081 -1195913.46686156 29380.8880513249
 -1447673.28420951 806086.506916642 380087.628781816
 -95740.5307150219 -1614108.57063840 -524868.815010048
 -1196095.36377159 1037633.45873431 618605.436509574
 1288963.62440280 -352663.544048720 -1050809.78281771
 64576.0454711075 -759190.314825800 -1519690.75809061
 828048.672978226 1429011.27260568 -402817.797453024
 -1644346.28734974 -52017.4522975128 -428274.995692738
 51489.4060486757 -1072561.00318656 1317938.44147145
 1058522.70443582 1306297.79589325 -251228.486916404
 265349.627160959 907867.940581758 1412574.02561047
 -1484171.04181016 522364.152877088 643717.337378088
 -71959.3234518463 1517686.11630395 762529.152325716
 1118503.56935546 -1223188.18891906 377836.498803399
 722569.077577618 -951000.286623919 1209748.89252681
 -428972.268509986 1618858.02133432 292029.963549876
 -1534338.58105613 -629017.328253306 374355.872719719
 513662.667894740 -1381150.93278226 847686.713642457
 1531483.94818970 -55324.5992184229 -735864.189343804
 -328062.015717971 -1257843.69261331 -1095538.47892074
 1403262.97771032 398392.425934561 873004.289992636
 1284109.77970612 -261179.119037528 1082980.85922231
 -1021196.82792212 212421.237807160 -1342398.69501213
 -906641.660301472 1066779.99132517 964355.406431710
 -1557145.73998324 -675753.855497143 93026.1857371815
 635550.650042085 1515199.66309144 -436171.241829036
 590077.571676041 -1574308.23220067 251718.194475681
 -1077512.37351896 639384.365475242 -1148979.85974488
 642326.638507760 -420511.534160348 -1516768.45269851
 1339897.14217117 823519.221186791 645361.713101604
 1486698.08254632 553626.627546179 -610922.555341449
 -1547705.83936884 -633600.572000627 305216.234732129
 538143.511983924 -49436.4146727049 1611818.10432006
 1017781.58862677 778098.438816248 1117445.05787269
 864667.793159716 1329347.02085055 -612524.371456422
 -1223201.06079668 -957952.484793729 690004.494002326
 -815460.091373908 -1468142.09445997 -263787.091896392
 1640087.00644275 -446387.042063157 29209.9294038617
 -1467946.60674517 -833231.448260291 -202133.899619549
 -1232809.41483573 -758399.598064224 891633.891431009
 -965634.047599044 517008.335934435 1300097.40661682
 -407003.508162337 1290046.72293028 -1029624.97881530
 670443.223264095 -1255240.19728186 -929988.135143162
 595509.624220198 1577192.85943533 218702.930038257
 -283729.607977931 -1644803.62732641 -322674.041550574
 645003.724502502 1494503.41988602 -490336.336943229
 1501798.69060088 471727.145795686 -641930.052909914
 -101498.852253896 366013.437684779 -1657025.08925644
 -528725.669531432 346114.273632951 -1578180.62209814
 368602.056301012 1650341.59885213 174657.181898884
 -1636087.28657090 -221800.687348138 404997.340501086
 -829026.403919639 -360646.865061129 1439669.77474894
 1391704.80111102 -852206.455472506 -476342.212926291
 -1645187.67126672 -200580.751203195 378318.501475601
 -1370246.04710026 51650.3249330190 -1004867.16253464
 419275.786653855 130674.323010907 -1642294.74700233
 -879734.593153073 1437806.42870163 -220861.312126111
 1431372.18610797 756154.654528102 -519041.234654794
 1683706.48248893 14065.9024585031 -234381.379833751
 -1118375.24975220 1129612.83428822 602670.428470678
 -296323.079336188 1204217.53113673 -1162778.04002126
 754634.278751955 1523325.64908076 -2464.18043072961
 -1562751.28858937 165637.345681835 -648361.534737950
 -1163237.91486705 -776378.545518947 966495.684146407
 -396102.067713889 803513.533382386 1444807.65281200
 -1628194.44120553 -244733.974774107 423188.070742414
 417545.931423955 1377309.49016193 -904806.036375306
 1422346.95826796 883980.163766446 -292417.852350580
 1148575.79200410 -202489.470619907 -1236839.38500932
 45501.8403419817 290770.368989078 -1674330.36615939
 -1331689.05305251 -1001364.53321209 -337451.237373696
 784109.899404577 1428503.72925193 484302.344789979
 1036741.05710928 -532032.701349032 1237783.98163783
 -783771.313049992 1343806.66714614 -685482.436079496
 -338825.080045296 -1375371.63224430 939973.637050507
 -1282627.72056603 -1087334.56860117 250139.293915415
 868213.985031341 -286122.148823155 -1433296.40763829
 187030.193272931 1639146.35524128 410145.014480867
 199464.925469338 237921.215825872 1671408.75867259
 -671733.628738328 -1540562.18053344 255816.535689342
 -979910.025510987 668898.390718908 1217518.49464257
 80394.7673252494 1493641.10263758 -807819.867234216
 -939635.164480641 -1336449.88552806 -470093.034561754
 -709266.598290611 1542489.35500245 -87564.1607816685
 -1217024.25369673 -1170134.56242661 199090.611854456
 872742.543139296 599120.080940727 1330178.77821304
 253463.220734946 1251450.76635312 -1122331.22344915
 -51561.8714115767 -188179.740158110 -1688765.75012953
 -1306794.75939064 1082833.55699719 98787.3710045422
 -1542395.23315302 -187930.721898061 -689709.350751258
 -167169.765594663 366154.876689211 -1651661.24727431
 -372378.057430408 1497642.10793875 -713023.631356719
 146531.722550263 -238362.695042003 -1676815.93500860
 113358.054230719 -1658467.31886366 355859.668692883
 495268.857653296 -1625603.10117583 -46079.4540583285
 -96069.3367667381 -1574843.04039363 632961.357949233
 -1359622.11183524 615565.134153982 -813945.501015076
 1521840.69038736 745483.052851684 135114.510665030
 -1165753.09438224 -1142928.21290824 -474062.045598041
 1646615.24906824 -396665.066867980 145996.733739299
 1610644.47358375 -421875.896394757 -343285.752333612
 791646.991035576 1084667.53848630 1042492.86450239
 -227232.849321385 -381838.581593688 1640903.57114481
 -1291017.20941955 732311.788501462 -828851.017616770
 618446.229912357 770900.839481182 1383197.80089270
 933969.043826882 977596.327222520 -1030537.35797114
 -70237.8917893836 -1270565.88669463 1127266.14697900
 -1350469.22465693 -942432.965590373 -421963.243213244
 -450853.558294328 64060.4007457585 1637872.80764705
 366863.265760193 557270.601289562 1563605.07199681
 628424.980162095 1506747.35575192 -474124.931049687
 1015772.47571358 208061.915672284 1347188.37466388
 406568.167042471 -1373406.16869000 -915673.425055015
 -1320975.83208071 -1046329.42134145 224092.822495376
 -1165527.34355686 1222665.33613870 191403.989577344
 668912.081213349 1302410.02773709 -863877.738604657
 -788533.066171333 -1057467.81146507 -1072370.00669998
 1573934.78657462 221997.602256779 602865.119411093
 136953.284076968 755664.030919347 -1516646.19155400
 -1064026.51192423 -730134.625412451 1106684.69344081
 190950.611668354 704789.472059978 -1535190.43247960
 734239.275937002 1109920.13539043 1057813.77317863
 791968.267552964 90442.2616170421 -1501534.70173112
 848172.865936657 1389426.32222216 -489997.229180930
 -740658.009203747 -1322390.69241262 -769875.684784768
 56677.9824407219 -1229405.35011239 -1172753.20993868
 144461.106963420 -543156.336411529 -1604403.99612782
 -1534532.56558678 705134.603263583 -194923.052597583
 1683063.62272839 -237346.318076040 31041.3779356938
 -826079.776475309 785975.685472288 1260886.36472319
 1691614.07324661 -55976.1334985916 -159086.453453934
 -1691992.93004665 -79291.3980000698 -144474.215261246
 -699060.724734358 1157324.25942857 1030492.43649431
 693275.777395195 1353219.33863611 760372.354848817
 1131508.51999025 -29656.6118771607 -1268388.32955899
 1538595.31721975 -274799.844014785 668737.239548472
 223603.170415365 1679940.97171802 -133416.467211969
 1047893.81477730 1338377.93601488 25749.8221355263
 -1316432.25282798 858819.374063414 647638.329970951
 1157255.61259741 -1226432.08969935 -215925.395605662
 -1017177.18878216 -592106.616469673 1226686.72502561
 691800.556222090 -958581.662523894 1221692.75461702
 114480.433839540 146513.525373468 1689801.17681062
 165109.384721577 -323586.148874434 1660732.03598096
 -782139.579308875 -1452133.16608858 -411785.073095273
 -354805.347746685 -1602397.98996626 -443208.581778875
 1567076.12936754 421813.066367980 506306.371486358
 564051.911526090 1603345.55622896 -33592.6840934581
 -891593.032307318 526135.153340976 1348422.65820473
 -591139.724060252 -751413.100011120 1405678.54780873
 -444294.015537616 -1539053.10656886 569138.263445891
 -698387.741226455 -122699.467289556 1545056.44027377
 -844179.955998918 -87386.4614038782 -1472998.23769513
 1674712.20691237 -90948.3814508176 277610.187007220
 -110893.169932455 1696369.93811557 5633.64181717473
 -119143.403032944 853761.039896609 -1465229.31183770
 398081.666845378 1647558.92283429 -130692.701826509
 -636890.850704628 1479083.83515406 544684.360776663
 1335429.07982686 156740.372379355 1040221.91306430
 1512910.53862020 -284921.458556457 721055.798524637
 -253527.337265543 1318310.52625984 1042967.51896286
 -154546.935895870 -878445.841609874 1447220.83593470
 547818.725142253 -1292918.99049424 958256.295780456
 466634.426372042 -1532118.62202948 -569969.157196185
 1122718.03731345 885270.664243742 -919673.887701762
 1199428.18032642 997720.193175032 675223.264090941
 -1148327.20100878 1242225.62353589 167988.510482767
 -129738.518588404 781269.908734132 1504255.71180602
 -480032.581649082 1021421.79117810 -1271324.60255508
 -1262134.82342998 1043402.34724258 -456428.777854824
 -795794.393975209 1331594.76258821 -695389.582008016
 762232.846371048 680122.176875162 1358835.86662837
 -832198.283474428 -967267.272274969 -1123316.53640813
 -624102.977304215 1514379.88217948 455136.294059352
 -1451686.65494063 -355969.125501692 -809871.494471088
 -61914.1650840668 -258500.629225974 1679090.24797708
 -938892.287236298 -850445.943646927 1133676.74841759
 -1581085.31454768 -524951.998677011 338518.281938598
 -1454619.62014556 876872.121963170 71951.6671898171
 215218.648873555 36962.3297032455 -1685916.58137642
 1027371.75040158 -742714.287225445 1132644.15154452
 -61234.8611582952 1187421.40085665 -1215022.92511975
 194287.988062626 -1352836.56818406 -1010982.39226930
 523378.845680515 -1408619.65630781 -794899.520541679
 -176051.259761280 -1169963.70258846 1220733.75007082
 -466740.368754238 1482230.07093930 689309.397134859
 -185068.427740180 1557246.98699135 -656301.377844165
 850847.315525441 1135352.25161928 -936500.993275602
 -424826.176083471 -751794.662395322 -1464352.24782434
 -868806.642694345 1007519.78681025 1058337.79900181
 -915615.930063031 1417252.08977870 -207470.437973034
 162237.368822831 -1096247.14376237 1289155.24121429
 -923909.378717712 737503.384084070 -1221671.07618295
 -504957.986005206 1534060.36866774 -530731.775619822
 -40393.9426583635 790732.947777745 -1504363.56466621
 -1567392.05609777 -517250.016013355 -407105.101191054
 -776492.747266064 -638465.369043715 -1370919.75913074
 729300.522375536 -430079.260908978 -1474161.65239731
 87752.9608374699 1099499.43407026 -1293599.78832073
 392547.697457870 1188179.04563590 -1150711.45850395
 1520346.11819489 72205.3368649169 757188.266032928
 948132.087750845 1394921.51148366 212695.841467003
 -1517521.90400018 743579.769304574 -184976.748702695
 -1019378.25351291 738136.430576361 1142813.45202135
 1674076.97866174 -67537.8686125940 -287932.120156874
 -384174.645863525 547123.215301679 -1563031.03896039
 -946811.309991753 99396.3602395003 -1408427.74285472
 -1227711.68515648 482873.597664472 1072174.00957531
 1128665.94226338 -447254.833151006 1189990.04407507
 -1662840.00840923 288920.297270997 -203686.445936954
 1008320.47466072 1187697.25875678 -680194.855847661
 -1276332.12131210 -193078.321621809 -1106208.42422514
 759495.877382412 -487424.606103652 1440688.46931036
 974196.959432768 561683.807840669 1274931.99200646
 -1259647.41519807 1137125.61462158 -101161.879956504
 -49128.0805557100 -1034410.12534676 -1348177.33413709
 -1497910.99154147 -516342.858834685 -616159.649400768
 1432314.75482217 761179.003202592 -508999.968764463
 -1148396.32598466 203822.867990069 1236787.01357560
 1093616.02945023 -847733.396622096 987599.143570448
 1638291.38968342 -130111.157067534 -434824.573012752
 -417431.031193505 -1483942.24352503 716705.484895042
 -1156200.45357891 -1237918.90758871 144073.902488596
 -714430.391818246 -364136.132515651 1498997.69587647
 -1176232.52145101 206428.998273335 -1209902.52671563
 578404.252975473 -1464183.59698351 641572.220770440
 -897291.503165279 1136074.14202460 -891180.959272848
 307531.220839931 -502071.450034450 1594788.01326979
 516981.736931730 1613252.88540943 141933.122974117
 649395.594714878 361523.759382141 1528916.58796911
 648057.342652304 -852521.780042968 1320313.71089859
 -936317.077033213 1418378.46691651 38895.4475940772
 1087568.57526051 -145861.255030361 1298429.46993157
 1400330.44707609 -71161.5593977564 -961254.738066735
 1357928.01422476 897810.867450523 -489864.424582291
 -397868.068879503 1090276.97418392 -1242174.35142191
 -428610.085602831 487532.949132407 1571179.49898469
 -1214226.05135479 -1147482.51605052 -314545.658958648
 -818209.095581863 -1195361.29775113 889744.482278956
 -1467279.82222747 -858532.979561823 -3323.59576704146
 -1217384.75419769 541721.507557747 -1055704.58391370
 -1451674.27612423 -360981.750017798 -807671.945899621
 461060.397679894 -1629472.98492032 -149134.506758555
 -1355979.51707347 871017.663224957 540969.296381356
 1603436.60328074 -514746.461399679 -232437.388851348
 -8649.39405299410 1237221.51576885 1165850.80902367
 -145820.379650606 -1648058.01729760 -390693.215323310
 125781.953148077 -909742.483409349 1430575.93791537
 640418.114150149 55264.0146173661 1573788.59055362
 1115513.90180008 1180031.75464363 -503143.908761138
 -949497.438449979 -210545.059111327 1394318.97084589
 1126302.32193497 -1271324.87441304 -71945.4189129141
 -1240920.86011473 -1124653.57499119 292009.854613935
 -853990.066643249 686571.506578373 -1299738.64004628
 368354.835017291 -456265.697162778 -1595661.72139083
 273119.363121726 91490.1107312724 1675420.95400719
 -1352007.43420338 -683930.404765418 770918.348008536
 -1314805.79951296 -895702.785455316 599167.947819863
 -462466.980852928 1584857.05124106 -405404.019161482
 -1423794.44565541 909817.190363141 187195.236692932
 -1296776.69425221 796952.311587342 757124.308353583
 -443497.694811038 -309694.416511881 -1611644.86257943
 -300238.107312890 -166080.013063086 1665014.86725439
 351036.306789076 -1342937.54483606 -981474.534557870
 -1330126.74066301 -961545.271422839 442937.405033249
 -1077798.42934211 -1268894.18646416 343886.739007393
 221967.482027123 1440173.28175152 -875574.871413972
 998325.981462529 -498862.098128555 1282373.51882658
 1054821.56604474 1177834.61245115 -624545.506363613
 -905868.010288690 1438530.49026672 5759.90526062977
 -1326891.08332763 -760999.957387875 -741781.044406826
 673927.285212506 105855.342060202 1557118.06257696
 -527098.183448758 1613954.27116612 85551.8298440637
 233591.090709619 612835.108248616 1568396.73948877
 1007677.62977810 1281875.56494682 -481020.613318265
 -442822.672574187 -177512.757651584 1631685.41745190
 -367744.311846666 1631021.80879796 -307460.534589151
 -256095.082831693 -862900.569651956 1442157.38234208
 -1156088.50249095 -1069907.24229588 639341.745306090
 -1601788.96771539 -483699.266727945 -300511.434511426
 1084087.40334154 -1266698.20743902 -332009.266718533
 -1489106.00704807 -17029.1654247874 -819922.744713351
 80411.7034665385 666398.190976144 -1561873.04509980
 118031.206744210 1548088.27322386 -692453.126602272
 -728390.051988951 1488411.55578860 379577.360703303
 -1129509.09131591 873092.948293600 922993.995795580
 1357181.98203802 688622.735509796 -757532.702772858
 1166266.73198030 331059.495647104 -1191730.47297528