# OOMMF OVF 2.0
#
# Segment count: 1
#
# Begin: Segment
# Begin: Header
#
# Title: Oxs_TimeDriver::Magnetization
# Desc: Oxs vector field output
# Desc:  MIF source file: /home/martin/PhD/repos/ubermag/oommfc/docs/ipynb/thetaevolve/drive-0/thetaevolve.mif
# Desc:  Iteration: 2141, State id: 4291
# Desc:  Stage: 41, Stage iteration: 50
# Desc:  Stage simulation time: 1e-11 s
# Desc:  Total simulation time: 4.2e-10 s
# meshunit: m
# meshtype: rectangular
# xbase: 5.0000000000000003e-10
# ybase: 5.0000000000000003e-10
# zbase: 5.0000000000000003e-10
# xnodes: 100
# ynodes: 100
# znodes: 1
# xstepsize: 1.0000000000000001e-09
# ystepsize: 1.0000000000000001e-09
# zstepsize: 1.0000000000000001e-09
# xmin: 0
# ymin: 0
# zmin: 0
# xmax: 1.0000000000000001e-07
# ymax: 1.0000000000000001e-07
# zmax: 1.0000000000000001e-09
# valuedim: 3
# valuelabels: Magnetization_x Magnetization_y Magnetization_z
# valueunits: A/m A/m A/m
#
# End: Header
#
# Begin: Data Text
 -240243.503164232 -1661802.93427161 265883.558787774
 -1502450.76465258 -75642.3214954345 -791782.759975028
 -329427.407640603 829570.750121485 -1446820.63630502
 -558662.552676556 1114108.01930395 -1156139.90224347
 516857.706261330 185634.892138768 -1608849.83708825
 259421.060395632 -175746.141030408 -1670872.22950653
 1416034.69015978 925202.830309201 169839.568569672
 -302684.492292422 -1407589.50044659 -903921.399435922
 718797.203926433 301140.216640175 -1510842.52969972
 527118.874687064 -994737.277391311 -1273830.22452632
 994021.908060103 1312047.75724049 -424795.396652028
 247678.783892666 760410.451820842 1500143.71470572
 -1226234.03069219 77040.9247085663 -1174910.54888976
 631234.212419237 -1406471.29456932 -716506.710801760
 -883697.477403993 981368.044896571 -1070511.80698099
 -542709.031020853 1591844.63143775 -247987.050087770
 -267883.930923346 1014013.29556322 -1337914.50996470
 1263608.38780718 -1101171.11893130 -284105.630171128
 -16338.4328257045 1126176.48887687 1273365.45088744
 -1299904.43042427 321915.363831424 -1047195.76502803
 1625919.20609023 100101.565882537 486175.289144541
 -297312.248757104 -707190.146769920 1517065.43136759
 653628.459942923 -278977.910971422 -1544325.47137663
 -621267.734636102 56668.1058182423 1581396.57508264
 -324382.642786428 1663951.72742761 126651.292332812
 -1490439.03706053 179443.358130161 -797741.535855481
 617532.667763918 -1381400.96290542 -774845.006390549
 892942.715761304 1443430.33399383 95719.2628224837
 731321.757120160 -304291.581935029 1504185.86641617
 -217977.418476641 -1683504.85059256 91089.3136739184
 1241028.93364569 -747852.666568452 -889136.420894287
 -766059.856879650 -975751.723794662 1162351.43962111
 -1387307.82973965 -321838.300357021 928330.272029500
 -1269579.51700766 -1130421.90691284 -17724.6259799604
 -377586.810511091 1591887.93598577 461866.863707535
 539314.212187287 -1274973.32203555 -986703.201895303
 1101624.13464141 879799.353362877 -949935.452437597
 -260043.997069287 754906.058152453 1500831.09074704
 1365790.64541190 878620.983881766 502634.140889770
 281571.027437733 1085498.81900880 -1277658.04127636
 -479032.725039178 -460631.326804967 -1564719.28124742
 -116598.974979226 1554699.97579585 677726.098283206
 868276.814268200 999376.170296366 -1066462.67822556
 133456.748654993 -649401.490564871 -1565396.75491249
 144792.265366703 454923.992411118 -1631587.98751974
 -1685245.49053476 -200372.899699319 98986.5531188167
 1335204.36614665 736758.406904204 751276.480717261
 -1418042.59382356 -937028.050646425 -33669.4877287725
 -1074232.86693724 121143.457811033 -1312001.52828470
 987916.462491038 719976.631010709 -1181378.31110007
 1007205.54277645 1075026.04795690 848443.274953939
 1311197.94054155 -592483.309869210 905385.822865605
 -91793.5924184180 1623399.36433476 -496133.490371698
 894500.434962064 -148699.547941690 1437969.89408493
 513737.517975395 -1572559.60148379 -391318.364513631
 -533856.920478190 1016751.43484201 1253480.47779144
 1459922.31408742 870950.061861076 -8533.84871103005
 -85725.1051351768 90113.8057316714 1695444.10358057
 -793852.803149040 -954193.708865342 -1161598.93805660
 -1140497.38681621 1220256.39638564 316607.071534006
 1525568.76932209 -581046.058017853 -474368.431212480
 1394681.08390615 954611.327385115 183253.616123636
 -1696298.77420659 -18118.7210210422 -110644.387900031
 -323243.968288320 -28199.0575687183 1668747.47943404
 -1264912.36192148 -905297.246680106 -685881.631049884
 1161325.61130852 -1093554.73501884 587759.190516624
 -1039586.21450222 -786910.413063301 -1090886.10974266
 -405696.203247084 1593446.10201430 -431671.299308089
 -1155756.13264552 465439.267170523 1156544.01145311
 -353407.524120077 889564.793919684 1404911.95429249
 940492.600001202 -564199.996777457 1298904.16620292
 -200836.300664647 -626790.376625690 1567417.81414681
 1440663.45853911 197571.284532368 880598.879603178
 1293382.20989171 -224334.839099980 1080201.98995448
 1639227.57139655 190174.426797771 408370.734217696
 -1357125.57292195 443026.740610673 -923004.597185271
 86868.9495967291 -533960.037161804 -1611626.65165048
 -228970.825376495 669928.541425937 -1545564.01048592
 -235184.649199759 1070424.35718528 1299569.11179255
 907905.692013428 -1402231.17663955 -315364.838987593
 -846517.416367270 -1333356.04006443 -628943.506374439
 686125.085714611 -1420654.38660590 633224.668321230
 1235351.44084979 806032.661024765 -845114.292241986
 -1549665.29142678 -585860.673423109 381188.609330566
 429253.126720325 -582719.638443969 1538239.11540845
 -834795.792050099 -280274.273175495 1454153.47105159
 125453.221467341 1498268.67824367 793380.398684914
 336899.227439668 -439208.032008163 1607356.59241192
 99647.8609451471 -457090.679860031 -1634361.77579939
 483557.565311911 582721.366898049 1522040.69905837
 1121527.01504386 1230902.01323663 342136.505413879
 -162988.011232933 1662225.19424753 -316926.350755353
 672511.452590287 496699.804275897 -1480208.65102430
 -823845.258423101 -42263.7009643509 -1486436.26494868
 -140002.046837916 -1181174.76557464 1214588.65466910
 524545.764317544 -1466894.13866528 680494.913343209
 -494341.497937073 883352.680907211 -1365765.17914002
 1031301.95889191 -614749.505626287 1203536.17100524
 -1312138.93404526 -1066644.16702371 -174818.874029270
 -229654.910861016 -1200555.14653215 1181493.10706943
 -258032.393871254 -1679323.76918853 57366.9064139697
 -464095.603859983 -1184082.58056823 -1128079.65714870
 -514253.887590414 1270407.46297052 -1005787.16293606
 1038751.74079226 1082307.13412932 -799753.767364569
 -1433971.25379960 -754167.731462234 -514740.202526974
 -1693319.14542350 44672.6506446958 -143786.738006693
 790850.822411447 1262813.96736497 818447.225249793
 -1309945.33285116 798105.329518898 732851.354597234
 -613443.312379025 -153918.310836823 -1577972.26087362
 1119949.80418089 -1130257.88258472 -598522.810735139
 647065.061697789 -1567958.81852098 113189.881846034
 613317.769729342 684070.337149041 1430345.79286515
 -1590516.23501827 -117593.450966976 -588582.947793236
 -471483.952413448 -1385542.19812833 -864855.883845580
 -369814.543814318 -1543759.30632544 -608312.754524355
 -243738.296768895 -353505.086880887 1644878.65699496
 -347368.346471159 -25681.1080745761 1663933.80654338
 -572871.665648400 1173602.78032186 -1088335.68751467
 -559414.526090501 -1487980.56602336 -602469.271528216
 -1670434.00349954 293884.799840433 115247.405069460
 -1593251.94860569 -259245.201661696 -533235.551777587
 1135213.17897275 1158074.86105150 510052.599725887
 -156002.649418272 -74954.4577129656 1691166.75778689
 -147775.231016551 -1692757.26577860 52300.2892131498
 -559067.875363013 379580.700571396 -1559923.58867055
 566998.900275068 542725.910887707 1507965.79296016
 -1099522.04320502 400094.367784593 1233278.46546241
 170895.037659435 -1690488.30330124 -55174.1108225793
 -263528.216543418 -1600370.31595315 509281.583116327
 -396473.117891455 695208.359466066 1499831.45843722
 -1210850.57355976 107963.100460763 -1188353.84353689
 1510877.71909191 775272.600452145 78745.8757003214
 -1001289.20404795 1344405.48622600 -282831.784745713
 -164615.042084304 1626895.18659127 -464880.565054889
 1558510.57680260 140959.285476570 -664210.254236079
 1358636.39447848 995806.734833585 -229076.612639942
 -1246868.84630044 -832073.152962858 -801855.565699877
 -1056125.38980286 716309.254485565 1123165.26520013
 1413027.90727802 -482751.616407378 812590.308894685
 -285744.547015056 1346915.28492459 997080.372431271
 -696557.072162767 -868926.515688965 -1284435.65644709
 1376638.69444312 203788.915934926 -976389.257777868
 353097.795450095 592126.395265266 -1553933.16422504
 564189.892867390 425387.343953308 1546200.30151033
 -47865.8147063319 1581857.67215200 620834.252305996
 706647.501164945 -1053299.94076288 -1131904.82987142
 205609.319836558 -1260947.62228062 -1121488.25293054
 612438.523381999 1563030.30226874 268058.443753143
 169749.837301870 -1584719.91136888 -591479.327827273
 -1253326.27655194 1138532.15392305 151386.191536063
 -858027.492591933 1229004.22231257 -802083.189883872
 -875734.084211373 487636.767526377 -1373062.34261482
 -942630.140916197 -874329.004261970 1112203.76269035
 1327717.89652192 -227964.546505358 -1036917.23526616
 -1255166.39729095 -339982.016868005 1094974.67702135
 15405.7054529152 638744.014159401 1575363.05295479
 -99299.9406233756 -749512.496598220 -1522619.63051686
 -1449813.91593944 824043.166549298 330140.074531655
 1448470.64696675 832549.562023381 -314315.147026699
 -70831.0761593372 1436156.15781618 -906883.922570455
 -517193.648048718 1321257.29798020 -936370.590606162
 -1608684.34564557 477019.620849736 -273106.128454242
 -1427417.73329821 719695.495139818 -578374.453914800
 -376690.061000742 1232142.10568700 -1109022.28532004
 -1086340.14186081 -656433.998709925 -1130910.91670367
 1442560.38320462 125377.842923361 -890673.866975126
 -124995.737405214 -399711.837594478 1647606.29779003
 770572.792277614 1352932.82652201 682488.343285534
 1190049.29228817 1147434.58632024 396454.981101913
 -11257.2959575920 1279732.29037156 -1118998.90002988
 8220.98845601472 1151640.56067285 1250462.48818664
 -1270558.12957949 -1092399.78497121 -286957.748029783
 -416651.891403968 6885.37150500367 1648136.46068787
 445828.148554903 1614472.08582683 -291062.099975383
 52463.3272467581 -833004.218915655 -1480996.81652694
 -789568.608770501 -805328.652050763 -1272016.97088927
 -859054.859703942 -566710.014004820 -1353094.41948657
 -1189237.56248484 1161652.54116839 355355.306098190
 -1611371.11627481 -233636.649874107 488770.949904836
 507080.997099487 -1483498.25036505 -657344.509024320
 -364787.321840279 1311333.70443079 -1018496.01150344
 -1552226.79519911 -645727.875436637 252244.895191122
 -626311.836708223 -498932.000505147 1499600.06070656
 855183.904248728 585044.796494486 1347732.56843063
 740192.180390689 -955749.945863713 1195264.64729364
 -467913.191035530 -17554.3870734209 -1634242.66531915
 980398.553529745 889861.790503369 -1066285.45429398
 995664.414857847 -519682.604339317 1276159.22350343
 -692830.590933058 -282877.996138399 -1526422.55341307
 -164050.348283566 -573979.653071357 1591739.56446654
 308167.524153592 1347230.63558871 -989950.701594930
 -1422138.82924037 -920799.846628432 140174.151739526
 -588076.574660535 940287.799505241 -1288419.49552043
 1364441.38255435 -886143.804304184 -492999.869844279
 584564.415773302 1227486.18137543 1020569.50686564
 1413281.05377755 943828.936153686 42703.6568974403
 653191.995037624 -804249.322940383 1347784.56890139
 -1315209.04002174 589148.925413524 -901736.505155019
 1088004.55321986 -14616.8414789609 -1306151.76764342
 -794270.225839126 20063.2569855531 -1502907.93931784
 295323.876318097 -1594035.85964450 511696.674059801
 775177.008460057 -1072364.75174637 -1067302.41486041
 -644313.391210430 633604.994945678 -1439932.27767378
 -1644830.93392256 423175.766248173 73847.6111442816
 -864500.901903926 -1458164.72287579 -128038.398802311
 999362.083203680 -53352.3564332334 1374201.20532541
 -796895.166822510 -851029.078593038 -1237217.68516458
 1212981.30243869 751816.382527130 -923822.757295992
 -1050405.12305858 -1306914.77475684 280397.662213063
 -176550.319688206 -1668066.59030324 -276376.256093221
 -449897.736274397 -390155.843966395 1592284.66183470
 1424640.98019211 642705.013667313 668826.093214188
 -593612.678993685 1264507.93360829 968836.246834119
 -770977.263598009 -1297354.05936052 -782602.391815729
 -684224.489592262 583343.981772195 -1442756.61383768
 -329465.995350591 -1217278.95428205 -1140036.88772322
 1052149.23073937 -789334.697745736 -1077001.73221272
 -636879.457695683 809205.711787335 -1352616.23248282
 539661.168916177 -160069.328643548 1604102.12667138
 -996819.175690185 -742299.547058961 -1159889.18152227
 1365489.99939147 984013.522011831 -239069.968962535
 224236.669659506 -1280017.69537047 1096025.82794316
 946036.449174521 263956.879799931 1387566.86413288
 797206.608435201 322949.010158226 -1466344.28437017
 -1350395.57540786 -512138.668087131 -896741.754670109
 744715.157270094 1449784.18323805 -483244.406656686
 -1070256.29474420 544108.772061556 1203535.25404372
 396658.425676490 1596378.17945652 429230.475962426
 -82741.8210344913 -274729.786123654 -1675612.52551667
 1582097.17025428 -437484.987816871 -442239.108750304
 1144430.74642521 -1174115.87810897 -449143.820406146
 810638.334772652 1449281.32084252 363935.630646376
 -1234653.81084981 1155187.16887299 -176557.560657308
 648808.568328292 1448391.70271576 -609269.166434613
 1010539.96919499 -67847.9306249514 1365359.15750007
 -936294.338459182 -935385.287400550 1066961.70310085
 866550.671988221 -1426221.41711747 324009.879837332
 -1344800.37133799 -965790.685042590 -385694.586342842
 -1233607.65987922 -1135784.20627384 -279654.033166390
 -1570975.64208342 227294.678361843 -608582.501530372
 174353.410089030 1190884.85352905 -1200580.75697781
 -900101.372023515 -872453.413666168 1148321.62788290
 1359604.72800388 -986232.794917924 -262335.391851474
 -1583938.87945691 -215872.864534049 -578391.331628207
 1129520.12592233 1263476.87551452 -133455.873518037
 659670.092968688 1561803.66049364 124918.751640160
 -52372.3821117219 -1221816.90841520 1180855.86584590
 392736.050922782 -654873.256312444 1518848.05443873
 -280113.956514033 -1676758.90005243 -3970.19659761384
 -646661.787618282 803753.749228208 -1351224.79367274
 1155148.11311242 -734913.796014335 -1007737.34137453
 -854642.489890749 -1317739.80206039 650498.292495221
 25992.0771395162 -241892.953231867 -1682501.77150062
 -38936.5710995709 1699549.99680396 3708.34122976690
 662612.729131946 -1255722.05495262 934936.624535529
 -1496072.29515074 807291.611730816 6923.96645392899
 564558.333751323 -1280532.25163805 -965148.196033496
 -267898.771940846 1527827.89467365 695681.085160201
 1382503.07269677 983289.466022713 108752.379251036
 -843310.002029353 -687480.786796227 -1306215.29935279
 374594.656390004 954377.806524994 -1356039.02813178
 -1505011.57237603 688336.519801402 -388758.282898148
 474438.836032507 -1454723.09060724 740735.121698870
 129249.459832173 479912.764964493 -1625723.93571517
 -580663.816199397 1417797.73862863 736667.567425297
 -1522895.18655107 149416.414214289 740584.219345058
 -618899.658344000 1308966.12709656 890825.960003133
 -207339.251154771 -1567178.36113540 -625269.877188671
 1130506.27125384 -1162910.07106541 509505.384927759
 -1124010.55223073 1218585.42566302 376363.971224172
 -1074999.35737630 -10494.1139370931 1316915.43206586
 1057603.16307518 -846273.653578011 1027276.22999518
 449218.104201276 127363.990711427 -1634619.68320704
 940525.887633470 114828.240339093 -1411462.19570766
 1587616.42118905 286836.005627631 535909.698593401
 -64317.9756442313 -917412.386015738 1429761.41785752
 -689444.051828823 292514.073550321 -1526139.71056809
 -1307829.64909970 746762.562613528 788623.664376511
 -1487463.10847042 -759519.576266135 317149.041001283
 -1353.79836830130 1698973.92881504 59040.2950261927
 173075.215968645 -1599592.81301653 548951.548101707
 -221750.300048400 1005001.80789231 -1353069.90601433
 -297813.145786620 -195823.121055548 -1662215.58031945
 1160490.47700366 -734541.917308816 -1001853.29489907
 1577747.71720789 379583.480001456 -506585.158246158
 -1586600.78663180 -554693.420354879 254976.770068105
 -8450.85227250564 -294134.389169754 1674339.73380661
 1497541.13558137 619520.591835324 513385.609005238
 296305.898870354 1333439.72452648 1011998.67359072
 -871029.252337099 -1317290.89218065 629327.217710286
 -41192.0564637009 -639249.945957056 -1574694.48499644
 1428848.53393599 349077.686099988 -852371.184482468
 -1350236.67586958 -813425.351514760 -636553.310139654
 -384781.758414201 -1490902.37262345 -720522.805813554
 -1296631.92734044 -194151.470683256 1082151.02986272
 -757001.241931262 689486.494671157 -1357039.97486463
 -141233.826322492 1165388.23170236 -1229602.89350341
 508782.044783671 1060646.21086156 1227261.36022070
 -718509.339839016 -636629.862840457 -1403013.45193260
 583965.600380072 543297.761912246 -1501270.03549458
 323471.158558262 767697.608647319 -1481892.97564236
 309888.904607471 -1052730.66673210 -1298355.50221154
 382574.179268959 555243.615440144 -1560558.08122275
 1474770.64781123 822336.531071043 -197013.111290832
 -1391286.35512976 -20004.1999125699 -976689.362087870
 -1008416.78965906 -563602.648744111 1247175.86276448
 923614.622137214 -449794.378383243 -1354481.83706876
 -1075231.35317281 -1176029.37875660 592311.098541576
 -1629847.56920410 -110542.739878657 -470507.389760904
 167074.107984812 628750.580782863 -1570591.91058858
 -845984.374735457 1295350.47895397 -704540.683266173
 -222609.772227634 1532843.03995288 -700597.676399788
 277810.628753107 1532532.97766904 681295.770505501
 -925351.372868698 827316.816307253 1161581.56071162
 -1572274.66100513 493664.277684649 417430.199313971
 1084919.59447110 -300319.831517951 1273874.98300646
 -1221570.69657054 245669.431215596 -1156465.11570663
 -846678.561797843 -215442.553441249 1458327.78179621
 -50455.5526097623 1559876.75841868 673972.355335194
 -785420.876383419 1486283.54668527 253130.926189875
 1274730.99660016 601997.181522137 -950084.354016087
 -648965.821899946 882452.961556895 -1300046.20404245
 605302.946128536 722748.705144081 -1414652.83819765
 1181477.97472379 66059.6510561928 -1220551.48098919
 -43637.3028119441 -1654519.18690900 -388152.091264835
 842527.664735457 1469809.00432831 140743.116886199
 1064669.34764876 -1014668.71009991 852599.899672369
 -1021843.22068678 1182707.78215625 -668609.553000494
 -1303488.13517020 -51693.6919415975 1090067.17393194
 -670250.678810346 -1561612.39651771 -46160.0541212090
 -734558.963967054 -1274109.94495757 -852682.224873870
 -292435.382517750 1637118.99479397 352594.588637531
 1051164.89426819 -1083106.09998423 782261.811182867
 -804236.779638903 -987675.121224519 1125922.31401202
 98386.1475208235 -59600.0890805148 1696103.76904174
 550608.298263220 1557367.10941829 401793.713721114
 -432539.809129505 -1494991.63026372 -684038.989356324
 999557.875858718 1343437.42565822 -293359.738460502
 -15566.9379891510 -906804.914087033 1437867.35070703
 -791725.589172683 1002283.69465764 1121872.53592937
 306593.952788785 1666665.92855005 -134999.373049493
 -604966.594678039 696598.559848725 -1427853.58694102
 -1651259.44601016 -402695.370558585 34331.9165339294
 -472896.907043823 392095.675403052 -1585127.59632738
 -511154.940721156 1395029.13679146 -826204.777327761
 -342048.552716395 1664622.49468323 -45108.0677838915
 949178.793593734 568713.322131897 -1290590.86275304
 -1237838.10931928 -928699.758996968 703756.756810087
 29332.0314360039 -1596010.69022252 584713.184926823
 405918.957882940 -1545439.22222683 580385.570146405
 -731657.492650584 -336558.097625865 -1497132.57942332
 834549.882258539 792424.177667844 -1251235.55602840
 -1494963.70319437 -783571.666125812 202728.809438122
 1268143.78442010 3850.90786535669 1132164.52538723
 1486025.04732907 -692887.605049151 -449039.336227779
 649606.998320698 1526543.22870292 371047.865691277
 798.371807893694 -455720.960577955 1637778.30266870
 -1348951.72476746 977300.131656095 -339431.431826612
 1440117.61595070 903345.516289096 5303.81267140829
 1514292.90502304 -402.131570944809 -772603.932223414
 956514.654013964 -281130.748712745 1376969.57801716
 295012.962219645 -1667734.32325765 147069.980453987
 -780474.745140203 -387366.576395974 1459728.16225816
 -810159.851897075 -157255.481210712 1486240.80417787
 1193187.27115550 983936.808641392 -705813.355323544
 1177245.26987913 -370823.897128488 1169009.50033165
 639335.317571788 -1573881.52983178 64399.3925418336
 -812476.335750083 -510066.864935223 1403464.99676382
 -1088828.73478528 1083721.54706032 -728010.710596398
 657812.795950077 1162348.35322578 -1051774.04000938
 -364635.922095046 -298510.175188148 -1633380.64137758
 1496414.90140694 390525.299126268 -705855.816431085
 18144.6733661479 1095962.79152035 -1299436.92822366
 -1075813.60992044 -1222758.08206305 487327.148288957
 -1381638.73696078 658366.624854150 -740018.775307482
 94921.7671021142 1569408.84845724 -646487.219142286
 183838.824133980 -1642826.65180559 -396640.742811753
 1552011.42144983 464199.726008971 -515537.740677120
 -1211115.53577082 -672076.064858633 -985653.550725955
 618284.375203783 -1536207.23269072 384436.951407609
 211661.404768415 -546456.650376670 -1595802.17414019
 -1520976.11649253 636517.379771673 414098.150572910
 388169.256617048 -925966.395255503 -1371827.56317071
 -1433761.62551037 497914.105806998 765773.559514999
 812034.126359872 86017.0314213956 -1491040.45818093
 -1182380.08582477 -89141.4681969385 -1218208.16418734
 -1156328.43836862 660900.204418692 1056463.65882567
 1175036.93133180 359727.739997506 1174684.70794620
 1077652.89738991 -1211261.67738365 -511379.879980499
 957148.107622900 1274841.03401944 590464.087014746
 376452.202408507 1547362.71444725 -594938.962617369
 1327440.21707356 1028970.63837432 262910.432389529
 870361.727453955 -977849.728807027 1084564.59985350
 810226.649775988 -1362047.58344436 -615109.060595084
 -394744.217454938 -913847.485465287 1378063.77794885
 1576832.76893031 -134949.753849888 620795.443574967
 125266.165713465 -806457.645976552 1491286.17407036
 204239.175589947 296129.051927162 1661503.51903300
 -355346.756645919 -1559768.80699815 -575195.576527503
 473009.541267108 -1488633.70159960 670993.052372487
 1564645.30757036 619607.965034854 240771.740790765
 1389569.46606697 350492.320273504 914468.059805069
 -1414425.30257783 -198734.279235517 921903.329901971
 -156722.005030036 218138.460256791 1678646.42652828
 -571784.934424903 -1342360.54609076 872427.735152681
 -1100165.37398778 655410.177391594 1118066.92521058
 -1330653.18388566 -813706.808271826 -676197.703624482
 1318169.39337048 813665.047987731 700270.404961121
 -629945.576270363 1572240.40598665 -145700.640768488
 -341901.714024343 1536739.52549578 641509.819664695
 1500231.12399395 784664.546738034 -153649.353048594
 679205.821710758 1097447.79404087 -1106475.39109961
 1608605.82207121 512760.143711616 198656.347040465
 970972.754328961 -775030.955240363 1160404.64010191
 -915354.377587612 235617.000337648 1413014.85929309
 -1096343.39945619 -937191.785751245 899834.822169734
 457669.937344955 -1424250.03830125 807496.165222807
 1085061.25482112 -809194.312616422 -1028516.71727555
 1183475.10821189 1193047.11758197 -256953.776917569
 1158642.61621086 344492.378309366 -1195354.46173376
 -1544138.42381836 130119.613745812 699074.684283728
 -503368.749711554 1211501.79943226 1081149.06085434
 998295.692295591 1338829.99312272 -317710.497558834
 -810204.305094229 876393.574445153 1210579.73164845
 -451656.882041812 1384513.48801491 -876999.693505676
 605846.798006948 546278.485158038 1491485.66000420
 -1313554.78393766 -127399.191060509 -1071607.79938913
 356966.350886590 1114723.09549727 1232869.59760540
 469671.826790801 -464832.549234727 -1566313.84986884
 239927.820947042 -1319805.49180602 1044293.11236562
 -217758.125818370 -779794.282862799 1494825.16538041
 -517057.579489479 -622321.460132971 -1495114.53064655
 -972311.896201678 956815.911018324 1014452.01410755
 -524388.169751368 -227258.341496128 -1601052.99526444
 582474.563788121 -1541988.64843091 -415925.943708805
 492475.880901753 454729.885469056 -1562270.21926149
 404650.516728887 -986453.082071302 1324072.60986060
 902440.549260021 -1223790.13813977 760222.831045691
 -171587.064937375 -1544183.60236358 689967.304542489
 263253.187660545 1492697.68636430 769773.587692661
 -4728.85385311312 471788.141952039 -1633215.71969372
 1679287.48832927 -217302.457703649 -150907.830866180
 420234.811036482 -1289694.59059220 -1024739.26761413
 -1112637.87295541 109687.977837277 1280626.99924031
 453147.071510023 1638380.68968863 19142.8116352854
 1275565.27021172 1035770.15249441 436019.991091463
 98194.0069349206 812525.508224790 -1490020.21311327
 689480.568121038 1429089.75245781 610179.502772387
 455582.163183405 1378631.53996038 884205.841201927
 -864103.555178644 -1237082.21245064 782912.923361117
 -1157454.98228501 -914147.150271213 -845359.658154227
 1128660.74336172 -197968.281098927 -1255760.12282319
 698138.408907224 1472019.78187056 -485551.772512702
 466123.447043480 1403675.27373483 -838107.784250782
 1548875.30439502 325055.360157061 620744.959116393
 -128823.355197051 1289664.36635990 1100077.43604589
 -916800.322262451 449918.201247969 -1359062.46408517
 -457315.410596690 1256843.87969847 1049383.66544143
 874145.529097914 1103951.01040099 -952450.397969762
 -1524322.46085239 686897.410648424 -307592.234273546
 -943200.793378169 -519897.094467016 -1315324.77910801
 -1038944.84377472 762651.627154512 1108582.92752166
 1394605.45902788 -331139.085681967 914014.507315589
 -853776.867758162 479794.386558016 1389554.75124533
 1037658.50007169 579647.776161613 -1215431.31966388
 -1131525.68162478 672953.319750804 -1075538.68422291
 1175856.29781457 -1188791.60607278 306816.694820728
 1131607.82853240 1087121.61129708 653934.495691287
 -785173.899595162 1478613.89467650 -295301.367867009
 614647.462272400 -512166.318386126 -1499964.71939606
 -1245585.02433613 -1056053.61296052 -472513.188919205
 1332177.48066054 742773.775350149 750726.500579946
 572567.243758010 580893.885695327 1491552.56190895
 965890.856807651 215124.463881123 1382308.32948921
 1339306.00150852 106147.131017083 -1041629.59870584
 -607925.511919626 -1161092.63637331 1082723.63127297
 -1591044.35907987 -536946.938193614 -265077.032208778
 -1349238.47507574 -672660.312129674 785546.715263254
 -3772.06548280752 189619.159499288 -1689387.56532442
 268544.160223311 -683584.856666345 1533165.28063559
 -1585198.92199866 526009.280076700 -316952.070457769
 1327474.94094701 92702.9120055027 1057930.26767526
 863475.374109117 1445381.48939247 -235122.581707313
 326819.243929320 257104.159942726 1648358.76942418
 1619957.38723951 457494.750019504 237563.922414033
 -637650.611722538 1561056.05294343 -215651.795583878
 358172.297967142 139739.135034375 1655954.58244143
 1282774.71249428 -1059708.66431957 -348577.945015526
 -407561.766101242 842444.221659072 -1419218.49628790
 526926.390827117 1276604.62057061 -991276.561504249
 1408313.12982574 102577.287856737 946642.502942053
 -808172.576208598 -1109953.07649744 -1002427.68070232
 -1477150.35466385 -429302.368775718 723689.371125499
 -1635858.55539576 -275920.443597228 371260.953432480
 -1624364.30759621 -501047.587557049 -19796.7474792232
 -1225005.81231174 48191.5353884739 -1177725.91706192
 -76662.1796188564 -1309770.70181786 -1081028.96301424
 56488.5522338925 1669583.90721526 315116.835847174
 1334396.98819609 -607993.863207089 -860074.496887172
 -510294.127997127 661218.314259708 1480672.22700340
 -1238526.38737249 -1009425.73654004 -580613.529116097
 378963.567643352 1038684.58888612 1291325.26468334
 156239.599073002 1388395.88542870 968476.149941842
 1538245.36733966 551814.842319407 -468296.454880962
 -405401.886170498 1576667.71039144 -489661.354099347
 1419788.07341432 -817572.988827641 -453625.654620502
 -1545940.63436863 -487356.898616089 -512397.119799900
 -1410362.54860234 409447.029902972 856288.859675015
 -408699.344090148 -1004664.39753560 -1309050.91362587
 -55141.6634297777 -827128.528460939 1484189.27174409
 -692911.247874961 -1090909.43266312 1104441.31229097
 73832.7547770689 -1489420.61436460 816195.416446215
 280723.774807635 1611430.63689205 -463125.754783131
 -618995.297322465 1581073.53338368 83972.0425279499
 -810904.406520618 1220127.03648491 -862394.375169503
 -1035445.31297260 -1284924.01890549 -408440.043926709
 454767.529425447 915706.054755352 1358185.89135091
 732644.576161469 -1146480.61317068 -1019222.31561370
 -1667299.15415467 -138816.009594430 301402.796993318
 -1488125.14395839 -780056.779217233 -258833.879382243
 -592503.581487424 -646849.223201462 -1456202.45445757
 1263666.13194717 992934.392397361 -554282.598828571
 285753.638687916 202025.493177726 1663589.66036788
 -1391786.40087804 -89929.9182590757 -972030.464611506
 715514.075596049 -1542087.75044966 -2231.03944962887
 379611.247537090 857099.717271826 1418194.40677077
 1182376.83178647 1176629.52594336 327914.602195264
 149786.944781283 1077821.32867482 1306087.69025159
 1511418.38892465 511690.216975946 586334.013572058
 660513.191727451 -1542108.47283752 274997.784639716
 -367212.410946527 1650501.42404883 176068.436863692
 323285.065580841 1117866.02955832 1239299.11899102
 79247.5272998714 -911574.507826270 1432742.73548957
 -1357433.08692849 -881344.511481278 520199.256625400
 39523.8854593501 -1283266.58861529 -1114300.10545717
 -1314581.46300299 -148592.165169993 -1067612.26368894
 -115375.310286898 1300432.18634206 -1088836.38187829
 1109937.69059412 1173082.57198304 530957.250923504
 -291540.047940848 1674530.81640928 -30837.4016792977
 118251.893958402 1583195.34819819 607872.502272352
 1341851.31415842 -561636.788964789 -879772.225051822
 742324.573404193 -1529281.35500704 -15898.5832104232