# OOMMF OVF 2.0
#
# Segment count: 1
#
# Begin: Segment
# Begin: Header
#
# Title: Oxs_TimeDriver::Magnetization
# Desc: Oxs vector field output
# Desc:  MIF source file: /home/martin/PhD/repos/ubermag/oommfc/docs/ipynb/thetaevolve/drive-0/thetaevolve.mif
# Desc:  Iteration: 50, State id: 109
# Desc:  Stage: 0, Stage iteration: 50
# Desc:  Stage simulation time: 1e-11 s
# Desc:  Total simulation time: 1e-11 s
# meshunit: m
# meshtype: rectangular
# xbase: 5.0000000000000003e-10
# ybase: 5.0000000000000003e-10
# zbase: 5.0000000000000003e-10
# xnodes: 100
# ynodes: 100
# znodes: 1
# xstepsize: 1.0000000000000001e-09
# ystepsize: 1.0000000000000001e-09
# zstepsize: 1.0000000000000001e-09
# xmin: 0
# ymin: 0
# zmin: 0
# xmax: 1.0000000000000001e-07
# ymax: 1.0000000000000001e-07
# zmax: 1.0000000000000001e-09
# valuedim: 3
# valuelabels: Magnetization_x Magnetization_y Magnetization_z
# valueunits: A/m A/m A/m
#
# End: Header
#
# Begin: Data Text
 1626348.36568248 118147.598458886 480658.026480713
 1443515.28319604 846148.878273332 300492.434141444
 1433387.21445510 -811679.251977022 -420211.714908898
 1432563.28131217 914541.249545796 37104.5538353451
 1669024.90489828 -195319.987325626 257305.206671787
 1581439.49720473 75193.5023426122 -619189.029203778
 1184090.49879525 -1213673.04742768 -122177.840095653
 1546917.54862048 652606.495691884 -266741.184579305
 1557957.57404282 322501.094472620 -598966.811723804
 1299131.78892483 1078359.32291426 198488.704184591
 1524308.52749921 -66968.7518096002 749665.725022997
 1522768.73680523 754884.712294316 36392.9299854414
 1510576.23205957 -777986.325333571 53821.2293678618
 1526114.81450282 600126.562118987 -448131.322710513
 1516049.23614194 -28499.3454113122 -768623.770712671
 1562769.67620971 -337585.370743929 -577743.071424551
 1509517.94334925 -771486.605684579 -127137.704698202
 1524572.90561134 -105341.967520760 -744701.635122851
 703010.891788641 948014.916045142 -1223537.25116257
 1079529.35439902 -1038957.34789297 803233.466838902
 1510921.46789730 703274.072188194 -335442.837507245
 1549408.19074253 605591.107117352 -350133.787915897
 1558725.67483526 -183453.541391540 -653237.375507758
 906355.363764617 1393931.20073358 354225.580946031
 1359274.38765097 -1005645.49794750 176210.872349057
 797108.498020783 1222127.78632779 -872365.586361925
 1559519.31248960 327297.966607425 -592263.079236415
 1609546.39165392 -311396.222144337 -449880.879731586
 1467412.65242150 -846783.931207835 -140203.713793538
 1545689.35471613 518845.279094013 -481294.083777363
 830985.311752309 1416381.35438841 439689.970994062
 899436.295675670 -753097.374396263 1230389.65157331
 1020242.52206469 -150170.029788044 1351500.70600224
 1338265.51025807 964553.047840780 410710.167824922
 1318593.99952763 1071284.33687019 -60495.7352738407
 1184513.74031452 -1218623.87020023 43394.2621129465
 1591824.56078535 537481.032568461 259246.421980474
 1626175.41089917 389284.120777106 -306612.795391388
 497759.465991979 -1538463.64273860 -524752.450196137
 1464418.22320815 -863030.785268924 -25634.5706807224
 1571473.24643749 627125.020849075 -164881.909123627
 1570667.77488053 -578293.182019553 297623.481233476
 1541567.27530514 708398.659890024 -108359.006890489
 1556091.52728666 513876.904411300 452227.471323166
 1436548.87270337 -307092.045068555 -855582.732522275
 1359980.16554705 594563.002451312 -828823.736046867
 1273348.85870035 -169257.743134122 -1113523.46200503
 1629993.91962627 -166254.131100836 453298.340911680
 1376713.24923657 393644.444449521 916354.014958476
 1655589.17996985 -248323.529114246 -295567.068624027
 1291856.63209928 -861422.509050892 692139.944665506
 1352931.81559662 -991596.320242036 -276246.701390068
 1564611.38293856 85923.8540986646 659248.292888122
 1556569.99945674 648021.439325007 -217159.045324802
 1221404.52097669 -475944.036505321 -1082427.02768026
 1684682.40614440 -225642.261971635 30508.3601628314
 1652281.16376409 389937.130089381 -88971.8519985615
 1330798.92810805 -1012700.26846624 305634.388109184
 1639005.20891216 -262299.674849321 367233.993160679
 1449880.33034228 -471162.200474952 -752232.150688980
 1128071.65034349 -1263208.43928095 -147508.612022119
 1204312.55546153 474467.858197817 1102048.78308308
 1510416.40877252 -770588.519909752 -121801.498734704
 1477174.54304493 -572677.117615105 -616438.389735799
 1529557.76992937 -266862.726403882 692269.682786250
 1685131.63156059 -153296.686006056 163803.267285758
 1318739.78237154 -1068734.08260653 93449.7034016631
 1581154.98770821 -500801.408514491 -373023.932309127
 1484227.41557131 494558.499585225 665192.355153386
 1224440.04387841 -389329.213278616 1113179.83391494
 1691715.33717706 167395.209624777 -8835.25633959173
 845084.949028954 650175.591962822 -1324048.00839717
 1215934.48703496 -546014.424853052 1055164.23891801
 1522600.89491556 119585.691517797 -746582.732981787
 1646542.86187202 263352.054389351 -330971.750255503
 1347142.96373141 323813.621077733 -985063.741122106
 1659947.70554963 -208693.513026404 301696.258613210
 1412762.19668917 -725583.078101567 -606326.786789638
 1530807.82402506 -561571.045308286 480900.579096172
 1467597.15325719 -854864.663776240 -73246.1765427533
 1401553.91498491 -877629.926149737 394223.713285861
 1394383.39130550 597549.522833340 767221.953422234
 1562716.35793855 -486779.578698064 459307.333268067
 1526166.07981956 -598771.362079139 449766.553627649
 1367043.11705452 920731.077089488 416470.166753270
 1653774.20615580 360740.883473296 -157787.483802340
 1679501.03039207 261671.614246662 -28359.3936736115
 1585288.84730513 -583174.950667243 191745.267279844
 1385897.88542862 -984521.281553823 -2212.99166535976
 1634655.88008956 230348.722468510 406004.457790505
 1437850.48478626 24719.0086516967 906628.343926659
 1623337.15044806 495725.609815159 -95040.0744346726
 1550148.41339001 251314.201281998 651061.493791811
 1572529.55495026 645637.405660454 -17410.8937155387
 1600309.30529299 -308029.965551884 -483867.407163138
 1358685.02973165 635745.061325361 799876.994908296
 1645834.75079348 -363788.208442202 221102.040874740
 1609017.36613269 375571.487860511 -400011.466072739
 1539732.01633341 -481437.842920976 536137.035916605
 1163129.83787018 -489711.296731124 -1138995.97282431
 1394614.97172589 925537.179680788 -297371.837379617
 1484586.13938542 -226435.580087638 -796700.020594377
 1657999.53878321 235327.383144177 -292674.823203441
 1611046.05980434 -540474.894589748 49167.8910176978
 1693320.29828718 121342.157309057 89120.4144301997
 1347998.15194103 957934.490278588 394033.621279042
 1229133.23889429 -145369.062330008 1165375.18283278
 1396273.80089567 772620.589561738 -586069.021120911
 1128360.82944678 -1253738.94146743 -211991.757430066
 1575252.44763844 30190.3810523543 -638489.050102683
 1229035.58256102 775859.160532352 -881767.599663840
 1696357.04224606 -25067.8509340819 108371.527957097
 1585221.97005004 503960.327555533 350849.389226781
 1122006.87873284 -1067029.87790355 701817.500307108
 1354497.15344545 -992463.110662003 265244.105086769
 1409306.44762423 -950607.366077466 -14176.4679671338
 1156861.53660642 -384209.013667677 -1184928.19146864
 1678227.33768032 247268.392926873 111406.215813053
 1643766.25621085 418530.693222470 -113422.016263527
 1580420.47895795 321769.061217291 -537341.400725530
 1111900.67898988 -235307.451141953 1264241.78205710
 1537469.88912935 594166.971393138 416115.308689916
 276234.614743892 -976103.955171777 1364153.76930730
 1438529.10329885 -782274.507493958 456815.732968221
 1577809.16566265 -595629.873349919 213876.812029966
 1216022.26271193 557984.714596133 1048781.63354725
 746202.097080859 530798.636317976 -1432283.22548130
 1546728.35302608 129347.395574230 693470.008870889
 1341729.14426129 -769016.438870994 705957.945054831
 1556612.70693317 -239910.309715223 639843.671459325
 1652862.69369219 49552.1641042520 394448.347484414
 1618615.58096871 417506.900841569 309469.851189090
 882544.099621939 871911.277851065 1162276.48852527
 1564515.41857243 373585.612840021 550204.775450082
 1387006.92174219 -791540.052271853 582817.419685376
 1349581.17691620 -985196.051072377 313080.481449849
 1578514.44038451 501271.365133176 383430.802094841
 1491990.87517733 339991.709124770 -740519.321904559
 1553782.58608943 -640640.837558654 -255614.929957894
 1632453.34110271 -85847.9030515231 466611.430061733
 1253136.55579762 -1122919.62823977 242281.408774035
 1683690.47296556 -187262.797322506 -141841.587639074
 1584580.64180071 613710.721833545 49632.0414349078
 1687840.35336753 -188593.480880250 -75016.2683265280
 1406706.36240748 -948909.821885916 103669.474247477
 656274.955164602 -1527859.28008414 353481.546172450
 1577705.55824515 595418.185487090 -215226.289922108
 1395578.28180383 -17169.0282555852 -970601.094078423
 1692129.65387648 148044.100774926 -69138.8363917343
 900433.059532274 875066.490269418 -1146071.08981464
 1685695.53637026 -179856.252433618 -126815.957678570
 1521670.19139116 493106.028153587 -575644.224873473
 1536611.56005898 132800.934905811 714974.702476413
 1513546.28803472 362225.748885868 684083.431183934
 1454040.67239101 872875.561266632 -117702.920847992
 908070.194373863 -1278285.24935807 -656806.930051281
 822426.353896660 220227.143299836 1471432.94028992
 1417043.69611361 690476.493092509 636576.292200205
 1434172.83506187 -408522.788160830 816245.925394978
 1146181.31494202 178717.617278630 -1242710.10559665
 1697245.90309528 -30285.2725905916 -91864.8283642206
 1557064.34889729 279668.957093061 622363.147873922
 1581805.11476522 -500385.080952753 370819.834505225
 1530574.35256988 -164208.918520371 721372.013827582
 1296590.20149798 780014.900268407 -774874.573552840
 1674674.24104214 271828.483034875 107589.321964984
 1446736.03126590 123085.244655822 884197.307383944
 1580668.47812451 391257.204108155 -488267.306397867
 659433.392081158 -849208.533168490 -1316811.47800365
 1690633.37373963 -166862.317074678 -62576.0556300441
 1664045.03136401 54541.9031406851 343481.170363896
 1287607.20270778 -105487.335290959 -1104961.58920944
 1315689.07921860 558887.016533378 920112.791768118
 1389273.48774443 -979754.588315640 -350.606455761077
 1285176.09657661 -611433.608637743 929769.510694091
 1522156.64233551 522934.577673914 547337.723592027
 1135733.92493631 -218828.191980699 -1245882.28743458
 1395688.47162558 791150.509009941 -562258.447926532
 1697081.87893455 20332.6043077519 -97466.3090202475
 1576150.02796695 570227.075164597 -283887.604676588
 1461184.91733727 -484330.916129619 721361.352601546
 876527.910775871 -184248.858107787 1444905.24945993
 1626541.72911388 -452698.724895961 198559.482092363
 1478605.07345495 650263.070495176 529985.826134485
 1263958.19145758 361165.563414167 1077946.71763080
 1475912.38082702 811794.045705350 229506.146930438
 1354722.87219119 633099.207398678 -808647.842483500
 1478715.54315097 798502.386117184 -256503.960610564
 1147340.90960340 917299.678162890 -855669.409055095
 1583362.78267320 310633.653018004 535228.018752815
 1427613.53192626 84521.0793684794 -919116.853617322
 1689418.73900558 -80074.8522045385 -171616.847486558
 1489334.93079391 -371232.197077845 -730799.644067961
 985976.337054226 61420.5023879488 -1383502.14479615
 1215092.21855782 708988.138238152 954403.855942464
 1439792.17120004 890349.426183670 -155808.867031041
 1421177.83474859 -496156.327309444 -789988.899219548
 1365036.15917839 965313.011037458 307972.522893384
 1274722.82715724 852712.039810071 -733460.217794539
 1636196.59933617 336656.222478216 315473.098991751
 1197067.55208548 -862947.707531246 -844008.607663831
 1369885.28403901 -357364.489736393 941118.977626535
 1384512.39014776 -713014.444060531 681715.368822207
 946012.725859021 158835.862766949 -1403506.71220763
 1646191.17392907 -195953.651793106 376373.199400509
 1049304.75119584 53790.0974519817 1336437.86407522
 1011877.35976781 -158853.322385513 1356786.58261217
 843484.999818496 1338174.07764307 -622754.520662292
 1507048.65485069 -724768.488284303 305802.207812174
 1389201.38773643 -225421.832593793 953574.591576993
 1505340.90127182 787416.472411149 62642.3972540726
 1271385.53200738 -673280.534095106 -905688.771825583
 1583664.22767821 -31061.8709307368 617286.622361648
 1417910.81209351 912728.241210518 215536.740824087
 1573813.63630151 628687.698016137 -133650.351868579
 764705.821083431 1510488.44060043 153784.518120649
 1658100.16539213 106167.413546319 359767.038272669
 1650485.10782541 -247802.922553970 -323253.183155660
 1590378.11325836 103052.654894924 591673.564719504
 1619515.41357150 344632.225273812 -385225.199730181
 1374092.32979022 -917321.481317119 -400489.162307598
 1413557.88786222 740199.743231807 586479.699377613
 1440694.09040712 870477.992042833 -238051.681857253
 1371381.44402701 -941549.523658444 350424.641652043
 1486600.76909932 -765500.445714083 306638.583555391
 1400066.69503081 -940757.251212617 211634.221609767
 1436579.19869637 -906216.186583546 -70798.5102023936
 1595021.35932995 -194134.355097317 -555174.490995578
 1524466.73991728 476161.684465388 -582469.921226045
 1537676.90818420 25085.5632042130 -724513.933996993
 1347271.26896010 -733901.730603023 732289.818072423
 1699354.79623764 23793.9820630702 -40337.6117501684
 940593.966392331 1270667.91421221 625048.831834718
 1468512.19429125 637032.819770639 -572416.912532266
 1161839.17630597 -1229773.74437417 166692.129534017
 1534967.86306710 419837.076394662 -598005.425255985
 1502028.07978724 -360928.863870509 -709677.393437197
 1576082.96272121 -290801.260800344 566918.972461563
 1189217.29569262 1124432.14106043 -459798.416456387
 1496543.25327318 768873.415728525 -243293.981981634
 1696200.67411399 110406.351675688 26715.3634618276
 1212817.12894009 -515248.082705709 -1074054.94506455
 1667338.35241882 285301.103190347 169074.241301497
 1532609.20115038 146901.392747843 720783.613408314
 1459447.41048908 871339.827186380 -27931.3726037849
 1698362.78839596 -58243.3395182884 -46599.9183869785
 1588598.68377692 -429877.465996351 426098.094493256
 940148.454705320 -684852.320927483 1239797.63737291
 1442386.94832272 894993.651177802 92229.3644112478
 1477897.93524284 359071.155256905 -759529.853572213
 581324.562752099 175734.276649402 1587822.16156331
 1632722.57698183 414006.521204132 229816.420245077
 1666075.78081765 222226.188884102 254572.216761557
 1646634.84379708 -132569.266388518 401271.829066759
 1134402.29285273 993608.807888691 -784775.748132218
 1460424.47670999 -869483.752002058 34034.5828648712
 1493440.19025744 -744016.187676608 325693.583908220
 749671.368272177 -1025522.28962522 1129733.09815848
 1587047.19105216 -608667.501586878 28374.0354100019
 1244826.05039597 624780.099851006 974709.152047797
 1200364.90021277 -608857.992669324 1038468.12714684
 1665559.21820216 197843.758613117 -277074.606991798
 1639228.65517886 391891.802457687 222149.119302688
 1592421.97611427 -379647.600218844 458322.975243863
 1671122.49526206 -308350.216057814 47641.8942340570
 1263147.40060820 -656668.992399836 929109.508485045
 1630035.97538418 -98716.7832483621 -472480.386533078
 1636621.10679489 230822.575188716 -397733.945718396
 1629096.91933539 77803.4681820760 -479572.567762974
 1208614.60473071 1147057.68114148 -336911.580931825
 1489241.50028007 -192797.928636397 -796861.790122404
 1512194.22673633 -228875.796144676 -742215.932572491
 1535657.63190811 433172.363461695 586615.155869151
 1602762.55784938 42106.8124037199 565136.443264188
 1279494.52898334 -339803.321419703 -1066502.43930984
 1542372.15169094 -307206.083637930 645532.778303405
 1504731.29009298 -614187.952000149 -498554.815675244
 1382538.80614188 -306758.392239029 -940471.019384807
 1374411.29286108 -219532.138777146 976114.357081113
 1576401.70746998 634273.227204615 51527.9529689326
 1292126.54309684 -520333.307940802 -974506.154558295
 1076033.01032426 881739.349489344 -977081.716262579
 1271358.36354868 122191.234121549 -1121925.67210965
 1496604.31496749 -778309.207103298 210737.520529525
 1401729.30540795 684602.548853769 -675628.821516267
 1686325.77200734 81861.8127110229 199007.623681912
 1495665.53735483 -753090.811902884 -292982.643507353
 1677492.24257962 152479.116582469 229716.989122341
 1004857.36358208 1221882.90609955 622305.264831173
 1443845.49430071 476015.511630558 -760736.104884366
 881407.248084718 -1417643.33971628 321572.113812414
 1548948.55901017 -644652.991273799 274191.324410646
 1659906.57752452 -83308.3675532099 -357449.114961066
 1155619.13146540 -1085237.22440312 613844.108679857
 1299801.22408773 1083985.76598157 159661.006540064
 1564409.22747992 -72039.4922670634 -661387.995453183
 765068.461841680 1388555.95163406 -613663.277275771
 1299447.56877782 792931.030642817 756767.068946001
 1421504.17153611 -712660.277671410 -601199.816146644
 1216553.52518072 -534669.765092982 -1060247.97225261
 1646858.88827536 -314828.705504115 -280604.148755948
 1309523.82094992 1025735.27589994 350734.238618362
 1210049.38243959 286036.527762750 1159294.43923578
 1467795.22721653 -857240.893248871 -26743.6329290490
 1502708.04935506 89180.9877089772 -789883.073520870
 1692237.78967114 -113673.459379187 115799.861147207
 1594994.10200039 -336968.820417608 482126.361704412
 1619952.92655288 59880.3403538319 512022.324310052
 1640273.56941736 156906.165556520 -418190.235038068
 1343220.48134370 377681.657176285 971141.238096385
 1638144.30827706 -452496.551489720 -41594.4244988395
 1607893.72148814 -367274.699968367 -412052.272366209
 1523035.44562043 752817.265674414 60242.8077556195
 1110227.93155813 -401227.634370857 1223278.51505915
 1119191.52226819 -177414.278262595 1267254.71407748
 1489813.33166711 -691556.839035523 438412.334646432
 1502351.60018154 -334145.063562249 -722001.901610336
 398349.938551562 1596846.38968541 -425909.537583551
 1553007.58624047 -195243.539730949 663360.684147678
 1517841.47685624 71662.0518834231 -762247.860905311
 875291.006507706 -225787.568999070 -1439751.93266487
 1481226.33719345 -357578.089262511 753728.364919245
 1621411.43700543 -293500.176679030 -418189.667779304
 1634245.64198266 -254044.803437384 -393322.284529027
 1672058.89131615 280437.767010110 -124794.722664827
 1328327.18304448 711230.847859753 -787208.724442137
 1569145.47526315 -629328.993201687 178122.137245596
 1524398.53854498 267428.199004439 703342.913562914
 898807.131667890 946923.487515600 -1088798.25902425
 1549242.33316074 412494.954346264 -565416.754068667
 1661147.21448413 345049.415611778 -107381.714447095
 1529766.34171888 650291.466575636 -356280.715508059
 1556170.82963791 -90397.9666816365 -678351.351884766
 1613388.52521636 274785.387490919 459859.171401044
 1359242.24680221 -642063.647919147 793860.684584409
 1627602.49046728 272848.662653789 407999.681755677
 1495539.80654971 402089.920757397 701202.098293038
 1420553.19442947 -846710.194573451 -393840.663468899
 756912.763616928 -1520287.76688772 -76211.3779257763
 1212989.71068115 1147114.17411970 320601.050084583
 1604229.45758191 -54943.8142769026 -559847.322668565
 1540921.08745868 -546734.599699421 -465449.760679588
 1650702.70381930 155338.303854285 -375567.031246511
 1511640.50090341 763675.045182108 147456.506789636
 1557540.71640541 -673023.813909171 -105384.356763547
 1608328.04768048 347292.893330179 427397.399719093
 1340091.16927245 259535.686790137 -1013309.86638854
 1556169.76610594 -658534.434436714 -186193.602787294
 1504771.08507227 -394405.407989995 685644.481986597
 1662310.77819518 -216102.209801023 282882.858468406
 952832.994700347 -667838.399250188 1239395.48034407
 1483759.21465681 719649.508007720 -412992.952173834
 1693499.07968089 -117710.283308354 -90582.3179403005
 1661986.20821269 340751.035833290 -108122.963746512
 1623162.00275313 -488190.456974952 -130442.288146979
 1286843.53930265 130543.163403046 1103173.68888301
 1466614.54705111 581101.568636083 633531.954448047
 795066.269053502 1497538.07835632 -123488.184399123
 1636899.58826279 417094.862491973 -191289.345306797
 1520264.90373695 755683.527527116 -87960.3813649587
 1179016.33818033 -1153399.82266255 411812.242880006
 1576214.06867011 -525888.776763528 -359152.062782033
 1015809.19469605 137153.497203585 -1356215.54266856
 1603883.17842661 -503042.394236298 -253982.478846826
 1637602.66035561 -54436.6552036624 -453094.004999462
 1471459.32645715 -243529.932531456 -815782.215142931
 1481208.39655990 14931.5643265257 -834145.511494971
 1453955.99768517 682767.286596775 -556633.442355551
 1508737.21176422 613158.442791775 487594.862433037
 1549412.37608685 -292274.032788405 635529.054085251
 1622449.58523213 141335.098306836 -487526.136085729
 1297802.48991510 -609723.091506423 -913206.684630605
 1684657.21973641 218153.159210007 65872.9923161909
 1474751.23011630 804574.192243863 260325.139864731
 1537172.94037176 680346.337806905 253432.855055486
 1135147.47998912 1264140.54246363 -58214.1526960400
 1516891.60029758 -299622.306058184 -706587.819495220
 1697879.58782046 -72177.9231622913 -44668.2512595687
 1609368.72182059 479558.011828522 -264492.779706054
 1433675.18780990 670445.102990697 620547.193800794
 1555436.12461289 -102498.827726512 -678315.894376597
 1681212.43818673 234854.390503427 91477.6089952761
 1604506.33208278 -558175.547631186 63241.5079903967
 1677858.13526429 -42759.8050716489 270117.894626929
 1520424.74651507 150861.200321921 745351.922531904
 1609639.61277754 -206669.454557840 -506308.259393568
 1592985.59441707 -167877.808379292 -569397.872698401
 781210.934800823 1419625.59543308 514171.804107235
 1107699.20702232 122858.857060508 1283708.75513253
 1259996.12445611 1134677.41665458 122134.870080845
 1608448.73305594 441535.507399828 328540.817610130
 1327956.17602212 -946770.034823495 -479748.783974508
 1326478.91595294 1011828.04050746 -326584.907757751
 1652219.04263156 -324707.388108063 -233960.140352369
 1291697.31325563 582736.560593143 939114.557376401
 1275759.30402275 7553.99255130317 -1123557.35741257
 1372560.10635257 -695985.654613288 722276.071195724
 544554.990631895 1248455.33704415 -1017260.60259104
 1544952.33955924 -652732.120887975 -277602.317806452
 1158494.72258086 702614.410130845 -1026753.60648443
 1399882.34684085 952425.104561660 -152367.434854219
 1491387.27172329 815570.215948146 24682.5565951135
 1360084.33790470 -915915.297825437 -448630.985327221
 1548810.69276676 542723.440657050 443437.374307498
 1509498.04199423 -180502.524953653 -760811.737357506
 1581699.44286815 437634.366952013 443512.156871828
 1482056.62778185 -688579.323438133 468365.954549830
 1674788.51423030 228195.343229586 181687.418195654
 1554750.76579204 661851.702322811 -186285.749324662
 1339806.98785349 -737470.426242722 742330.523228247
 1625952.73129525 384817.335099660 313358.156428554
 1694488.58324888 -132895.096049621 -32362.5506592491
 1379275.69014405 928655.119995619 -353833.631363058
 1582660.53419929 -82535.4604887768 615120.745260577
 1424841.98108856 432373.303154791 820291.811276110
 1555300.90946093 -498238.400713675 472014.382285425
 1605397.17333101 -362316.377854581 425942.200537978
 868083.867066564 1060908.53961777 -1005436.95491306
 1434219.30123405 -630159.277980687 660238.048239099
 1641715.76923528 186009.273344379 400212.297754708
 1674803.78998246 157665.886839499 245303.349319759
 1549079.78281417 -678090.856452128 174770.183018824
 1699496.47654270 -37904.1570594689 16583.1570142302
 1567864.02674857 -187232.339226155 -629878.118984655
 1618491.58638513 -465276.065346185 -232385.816728366
 1629539.97305869 -483530.303485698 28247.5098885030
 1565361.20435237 11430.5755825482 -662958.250458023
 1568539.59766150 143132.131464810 639684.862655232
 1096388.81777090 -768040.910131696 1047876.29070945
 1698809.82694582 -63553.2080946170 -2482.25969539481
 1489217.02071238 818800.600260073 42405.6863438487
 1654861.24891289 -385315.112417981 54465.6863426537
 1129893.41827402 5365.60836778244 1270162.22333523
 966946.603206023 -1328780.97079057 435149.857190830
 1373031.51872256 -734565.253241089 -682054.497327944
 779730.888893186 -676867.780200387 1350507.21917080
 1513749.72126438 91748.3033506449 768208.324742906
 1430376.42357743 661690.617022960 -637329.439315030
 1698745.31789491 -59628.1581158541 26623.8180925554
 1397020.27654628 -748297.401102258 615130.349131109
 1590323.07996251 555235.620986389 -229316.171532676
 1632450.37719377 279884.137715820 383106.558877556
 1369313.99759224 749275.596157952 673472.536188446
 311021.687895294 1525509.12419916 682705.955477080
 1529441.25510695 122622.675529281 -731965.249600626
 1694138.45291417 -41394.7272917276 -134838.343619352
 1317189.99791556 -956220.930510741 490562.984176729
 1639160.52634429 35099.4612402888 449355.979926122
 1553494.18479969 -652181.294259532 226528.976538362
 1369619.64589919 -702752.459900367 721305.071152944
 1667464.46863283 -327221.801475309 -49881.2438327650
 1240677.90728261 685282.886932427 -938672.304512279
 1528531.45595577 279124.569446025 -689696.355569104
 1372501.46204445 -945413.116986871 -335311.459564125
 1072505.14710741 569988.593345052 1189472.87185738
 1114333.12101536 -1267304.66408238 205427.806791645
 1602291.58261666 -426780.643170245 374859.929695053
 1283963.82190144 -487094.537428124 1002085.73268754
 1538693.25843650 274397.529705429 668677.091078818
 1562750.53310934 -57838.2241456820 666682.466466721
 1640442.73834427 -194395.915753253 -401444.703728911
 1608497.70891771 40547.6000049089 -548717.607281114
 1407883.99171529 268612.204309429 914171.838096011
 1414264.62303628 -883470.811655523 330658.284306877
 1486850.56655581 -586347.903053753 579199.041191495
 1622781.96820402 -760.130204928941 506535.394492769
 1487870.48381794 -63794.9925474107 -819860.733484197
 1662208.88278960 -134665.247381963 -330040.756760299
 754990.509146680 -1497395.87559505 278917.412237691
 1618636.01358176 505520.581163959 120276.338303969
 1530485.01924410 376602.243398793 -637013.623195286
 1652043.27979764 277576.503336108 -289316.930840806
 1278984.75595266 -984900.983891265 533074.146785173
 1227733.79432296 -872191.341161934 -788639.331177122
 1562353.03792668 -667304.974283620 61294.8299420548
 1274176.50654965 -938207.884213326 621482.257314621
 1696992.76441026 -26816.1432778081 -97449.7408869834
 1544159.12661376 -355508.656561339 615780.956838867
 1467511.02572271 810687.024989398 -281421.280105302
 1401166.28142502 913884.185874597 302570.234170344
 1586511.03494408 -204746.299059942 575379.604280447
 1699749.75159156 -26628.6995678596 -11903.5424872224
 1247060.74853060 -425668.291036585 -1074079.13836938
 1325106.49339987 805934.451395144 -696105.194064743
 1468458.73726160 716549.607770686 -469239.380874779
 1560809.37158363 -672038.224351690 47315.2257410771
 1582089.58679358 -253573.573662064 568060.720433627
 1376270.34746499 806939.699349793 -587135.633650244
 1307085.50386710 -995408.332230797 436680.361026227
 1629156.73821259 -261077.186209641 409496.062468691
 1395740.09437102 -405049.637780019 881954.862733597
 1698929.04446646 35248.6624602637 -48965.6375740199
 1228129.42877105 3385.82270438361 -1175451.67590638
 1544677.17464307 -203975.622697213 -679975.272698933
 1611286.64210388 -12279.9842018656 -541852.894211717
 1347735.63256634 -243077.346553946 1007234.86253371
 1630644.55539614 211627.020625699 431523.276426692
 1416913.74877869 -929191.166310238 137692.428887539
 1094020.64795977 1206269.59450807 -487885.731706755
 775529.995879891 -524612.941630164 -1418920.18343693
 1106605.96103061 -1284802.72801979 -121264.987050806
 1619298.77012800 514213.079883475 58791.1688836920
 1674368.97822945 -6826.31015001812 -294010.078454111
 1334766.95514903 -278127.807160596 1015402.43171180
 1623345.49890504 10985.3787474746 504607.483732176
 1430280.90432232 399821.157988653 -827308.634280788
 1631250.76539432 -162277.385534805 450207.719330119
 1023168.65583661 -448686.850023078 1281329.78281545
 1697686.77859327 -69370.9078279658 -55202.1642396580
 665265.010922832 1554370.69484898 177071.195389186
 1449371.05211893 -180598.307073349 -869889.535953798
 1695223.69639417 -126841.228213336 -11310.2612275671
 1594826.54623219 434087.875508170 397612.881795725
 694236.457112766 -129201.980607811 1546396.64699020
 1679343.17710501 262514.991791444 -29872.6061061378
 1492279.62134451 -322289.907097052 -747817.322280827
 1647009.90878154 132621.804675013 -399712.168066167
 904604.887474066 -1338264.96937404 -529846.080767179
 1163429.35700087 -326743.500559293 1195688.42768958
 1677888.56485747 203288.309883464 -182657.677049913
 1575884.81172105 605748.260734085 199138.406151446
 1187487.17795464 564585.215992185 -1077551.73243626
 1399490.33921496 644400.112913487 -718453.397877060
 1485860.50149610 -764162.879180679 -313486.306201795
 1451678.19295544 -716235.958165191 519265.323634095
 1664704.66091271 137524.006152672 -315983.448407074
 1629332.92725330 -86346.7099503149 477303.318497746
 1481236.50936298 -630127.867721430 -546696.692555393
 1320078.15013142 -730349.512498480 -783570.843726875
 1664905.77510098 -334012.052903299 -80775.6680610890
 1341518.09851420 -221843.508151316 1020350.25812216
 1643744.35307938 137432.701927758 -411359.640898909
 1455801.30832728 799804.652192801 -361877.146284960
 1162669.03701067 1079547.43712825 610555.518660277
 1625553.52743117 -472046.996332253 157312.945143662
 1256140.28294686 -105748.801979586 1140582.64954279
 1449893.32293735 839091.792317337 -289368.823765417
 1610750.39064884 416776.098107222 -348971.149339195
 1627322.28225281 -71258.9581980169 -486563.819616739
 1657641.84011079 -329908.531169044 182712.591180789
 1460890.54288990 -288188.434894842 820211.099466305
 1618440.15331668 518240.372588585 45589.3227797594
 1687887.74310694 195072.242960113 -54605.7386716424
 754954.292319414 -702161.332650107 -1351670.62535202
 1487154.65027686 373788.235308652 733930.106552899
 1279307.54432976 867111.923185986 708158.964985731
 1442038.59456369 -612007.380760238 -660281.498819829
 1041937.20194051 245942.127670962 1320560.23605479