# OOMMF OVF 2.0
#
# Segment count: 1
#
# Begin: Segment
# Begin: Header
#
# Title: Oxs_TimeDriver::Magnetization
# Desc: Oxs vector field output
# Desc:  MIF source file: /home/martin/PhD/repos/ubermag/oommfc/docs/ipynb/thetaevolve/drive-0/thetaevolve.mif
# Desc:  Iteration: 305, State id: 619
# Desc:  Stage: 5, Stage iteration: 50
# Desc:  Stage simulation time: 1e-11 s
# Desc:  Total simulation time: 6e-11 s
# meshunit: m
# meshtype: rectangular
# xbase: 5.0000000000000003e-10
# ybase: 5.0000000000000003e-10
# zbase: 5.0000000000000003e-10
# xnodes: 100
# ynodes: 100
# znodes: 1
# xstepsize: 1.0000000000000001e-09
# ystepsize: 1.0000000000000001e-09
# zstepsize: 1.0000000000000001e-09
# xmin: 0
# ymin: 0
# zmin: 0
# xmax: 1.0000000000000001e-07
# ymax: 1.0000000000000001e-07
# zmax: 1.0000000000000001e-09
# valuedim: 3
# valuelabels: Magnetization_x Magnetization_y Magnetization_z
# valueunits: A/m A/m A/m
#
# End: Header
#
# Begin: Data Text
 -302932.498721260 1595470.86087460 502697.357580650
 1474345.85524313 -469744.667018804 704020.061457623
 -606382.537740546 -1379964.02211784 -786129.452179280
 1499327.46026643 -367469.786925866 712027.473197271
 -1119575.90818555 1114943.40180183 -627256.723032190
 -1596939.48486686 435084.978094801 -387924.404374615
 1169145.77151138 -1035269.66205219 671799.740839045
 -925188.101450149 1285308.46420321 618068.870582124
 1656522.70211892 -361907.341200740 122293.146781181
 461938.875595229 359051.395309971 -1596149.92113516
 1613146.21911283 -502720.797318961 187165.904226597
 1128666.25517280 -773400.900878368 1008941.78769379
 1201866.19948642 555950.327760628 -1066037.93159292
 -981631.028996671 -358629.550942233 -1340815.18789948
 1141626.89594016 -446888.422781811 -1177700.62751517
 -629615.596588033 -543585.365564021 -1482598.78283969
 1256098.16920628 832995.703191844 -786343.148873675
 485274.052646658 1596863.37716552 -323320.968227285
 599853.981961334 101477.815163263 -1587412.18760435
 -1641498.90120909 -401306.079938538 185566.127118355
 -509983.275068896 748858.682693861 -1438446.29114334
 795212.957603485 1493098.47860341 168206.079710858
 -1118868.51018394 -1150399.21658867 560994.562710663
 -500490.860641721 1569104.28997752 -421213.278029362
 -460441.552467396 -715539.807622356 1471732.43508091
 1261135.57707292 -491346.682404523 -1028647.40991801
 1206119.36643751 960327.787661667 -716272.723303931
 1458299.54781039 -752307.691540510 -444292.208017443
 -498305.232993708 -764915.360330027 -1434083.81425294
 908478.081583564 424468.775906001 -1372768.67445433
 1318996.13803479 421347.090027019 986263.563949856
 -618227.556674957 889378.027645235 1310267.68719586
 521686.094751977 -645142.244059014 1483790.78830977
 1327940.20256743 1008068.18624082 -332224.849001875
 1493915.14123644 336568.588130991 738199.929739921
 1248459.24200494 -1121908.68466498 269574.524623042
 -525773.402852704 1209909.51979814 -1072231.91649685
 24596.6856358028 -172786.960547268 1691017.34743336
 1659307.67146213 368423.265366829 31021.7498434626
 1679309.38222120 -223861.258106714 -140734.274086736
 1577248.35060801 -413070.167364644 -481311.414094513
 -393541.297712546 -1412968.73138176 -859444.361859532
 945023.740387031 1301080.57400842 -551470.280289724
 1545597.11976698 -210377.274231001 -675922.292763868
 1505937.29373717 -294259.719363559 731822.440822669
 198419.584764358 -1537030.45245204 -698689.528057371
 1048009.39500004 1184351.30125127 -623689.268158491
 105370.371391683 1122836.86459043 1272059.14184425
 422811.753233855 1410191.27484603 -850053.404013799
 915138.509083458 -1414324.23523693 228491.721543652
 756472.414339844 -1489630.90464018 -314243.940727152
 -849742.616189696 -1286488.07305042 716160.543544600
 476488.257964490 -1007355.70779720 1283819.85418141
 700422.199328441 1548611.78715365 -34789.0122983783
 346155.100304098 1600059.74401991 -458241.707072147
 1516050.16650007 678154.112407184 -362903.420320505
 1415636.94296885 -313468.053367790 887530.182709086
 1508151.97970797 261573.910567335 -739632.811206642
 644120.637136030 -1059856.04539421 1162675.26328585
 1538787.36572729 288531.283940826 662482.559216111
 1536069.36652488 -728053.509686628 -20712.0316924059
 299865.269407274 1660661.55869773 205630.755644494
 812243.257595429 359055.275669180 1449600.01362614
 1563645.22337651 70472.1198499826 -663360.607615257
 1065954.07217807 -110486.336411709 1319672.18864130
 1377654.72715716 -856011.359278619 -509226.870390294
 1693233.97523633 -50072.8345763637 -143008.448501732
 952122.345058984 -1160447.86731072 -798012.397957196
 1602670.88197780 -412035.021731480 389452.416769048
 -155681.691871925 -566604.457432492 1595218.66828141
 1049403.18529938 -683109.724138278 -1149832.18752618
 847786.380180231 -1417140.30043353 403697.439263684
 659938.117316315 1400151.81067059 -702891.590779731
 1382652.49004059 755868.390230670 637914.624722353
 267776.456005799 -583443.799426814 1574131.22150581
 -456730.550011582 -888685.022415109 -1375367.63653257
 1108201.11288682 -778071.244541550 1027859.63624124
 -552509.780495082 669779.340685589 -1461550.05978176
 429790.834851207 883852.514339788 -1387113.75567152
 760738.832936084 210915.572400449 -1505586.61304557
 -214735.003626219 1658050.69269612 -307825.890183978
 166296.847269832 -1538509.84316460 -703798.849866738
 416062.343890001 -1180796.10059540 -1150048.99670208
 1101441.08444444 -1036995.32373310 -775543.832451497
 1098676.36269485 -550110.120529850 -1174857.05741007
 1358981.75022833 -619566.513477675 811976.562422503
 1121347.68230160 -1187399.94621421 -471869.413214413
 1355154.70069101 -1017710.83908216 133493.015584149
 -323865.796530552 -1668369.74502698 40661.2803073585
 1227729.74773425 1084122.75280683 455365.263689431
 1630370.61050684 -166196.540370219 451962.810820238
 180328.435779578 1369581.90080456 -990821.412888247
 -48359.1272708548 -1112232.64848010 1284756.75926011
 958314.550967368 710045.262147151 -1211391.32699000
 224366.028593329 63653.1279495036 -1683926.41303458
 484787.893314212 872586.475794973 1376071.77892568
 -295757.150005077 -1327775.23294461 1019578.65758349
 625461.962391162 1515394.23219806 -449864.040152867
 -1550227.62588180 230322.418401329 -658593.874504346
 -132486.561744823 -1692565.34559138 87577.7475170755
 -1304570.41920396 884098.264554093 -637547.080575583
 1656873.38332938 -96866.9058961746 367950.260438475
 -1011791.61523299 -80252.1100475570 -1363758.52927750
 759575.519264165 -151861.402397028 1513269.02598202
 281403.798298571 1667480.06911570 -174132.482337525
 -139403.538327861 1685620.33573592 171028.469136538
 694446.216984592 -668119.081683612 1400486.11003681
 1293482.63027720 1052106.38300311 -331624.552793222
 -795193.880705162 -1317145.32335337 -723045.565132243
 848554.338260915 -839606.564158697 -1210378.59880296
 1672958.82836322 -63968.6446232884 -295155.503263305
 990467.419193072 -798402.605275600 1127620.31349482
 732497.579352985 -1351830.57061345 725259.542920272
 -868705.521393956 -787176.462294813 -1231139.28306617
 1679029.64373395 -256371.253432605 71646.6040788711
 -142034.271832279 -1694055.69981326 1245.61441858198
 -714280.042345474 -753198.906056380 1346289.50416410
 960592.424350510 1080318.17218225 -894524.924825025
 1503857.18720694 699487.478436122 -373002.450390204
 -439714.824869715 -1600835.01389049 -366030.232483635
 1384747.00992946 914933.352150330 367930.264607834
 1415505.27918495 -62144.1774804916 939405.613036667
 1441996.26368077 -596630.183514048 674299.043192775
 881511.185351939 1334662.53207017 575859.319267693
 -532445.563125364 -1578169.66570153 340414.788996658
 1553581.50404246 -314534.934044662 614371.455686765
 -1404057.82674674 -180334.832908184 -941329.361696104
 -1409313.32371631 -937792.556865671 156144.407146183
 1024482.09425972 -525396.449821130 -1250757.77393410
 640969.703174544 -573390.391740975 1466417.84572865
 -1370528.87438273 -41139.4304487856 1004966.74161166
 908417.699195859 -116202.553103732 -1432227.02475546
 1598487.65470835 -27676.6281686932 577988.946259541
 837993.493978310 -1461546.98929756 -227260.427979121
 953396.478086869 129300.699889249 1401540.75380622
 883363.337074287 434722.276024495 1385888.07536578
 1524860.53347441 21204.5779682890 -751232.799686830
 819506.719347075 -725271.784270936 -1300918.74299875
 205754.658961270 -872672.721570835 -1444336.29786898
 876415.678185330 -517165.602858109 1361776.52287420
 -925807.152291023 -1423844.52858201 74484.0599985094
 1329542.82604311 914076.873698414 -535517.826675293
 1093323.45635992 1120844.29502975 -662081.479934640
 -1443868.23383748 372717.917452518 -816287.864251884
 1663469.02029333 182055.838926593 -299543.803202599
 458148.424565998 -487479.723628516 1562838.29621582
 661356.627287661 -1245408.18969577 -949508.216173715
 1602655.05468117 -377867.536759293 -422744.485911232
 1631219.83244233 -106844.560431865 466589.860748104
 1432505.28245309 -452236.790039045 795870.907546680
 718934.073485683 1396817.30259007 -649642.379441398
 910822.448136224 360862.013149096 -1389309.56789231
 249688.512766580 -1615798.71499232 465671.729034083
 946016.965424674 1273068.75969935 611839.712838469
 1361449.10820527 -813732.329455569 611797.369858597
 776393.418811370 -875252.080284872 -1233347.90516845
 1283577.33138807 659764.175281878 898409.966196566
 1066554.61196797 -1065233.49319444 -785963.653527714
 -7440.48345226634 -1541644.83150004 716432.727278158
 1688941.65791149 152321.212449196 -119475.204160560
 1648761.79563003 -352483.617007451 217577.207014383
 894436.525188092 313086.068913045 1411368.27789986
 781460.949502543 -867228.911564271 1235812.60689056
 238076.910291443 1350538.94644756 -1004671.06005617
 1662562.14547165 -346225.510361656 77556.4853479006
 1361095.05488689 946446.403470097 376376.748645532
 109422.519920061 1518655.86607566 756115.779869951
 899679.633649793 564325.798702885 -1327446.02516039
 821240.916144147 1028784.01761973 1075716.87852377
 97826.5819294733 -653920.129253189 -1566147.63813170
 1620960.05662025 455736.973174364 234077.564331866
 1571493.45298398 646320.427924022 -51751.6345306043
 415907.949045667 1447626.92613516 -788287.295755237
 1697067.57576094 -87725.4148387064 47601.4169145381
 1375314.61598099 -609973.758547611 791480.714201146
 1215432.49694147 1154785.32724053 -281415.517284666
 933661.510076187 -908232.860005568 1092423.57014501
 843777.990387347 1419297.02593469 -404517.805678347
 1672563.89252254 146908.530902689 266360.486892962
 1538600.56620327 -679206.075272217 -247764.817906613
 1441969.02936818 -114935.383983956 893037.051779738
 -844964.690769106 -1348768.89945923 597375.198016300
 199159.087222464 -1422579.52531033 -909177.184131105
 -175175.711571398 -1676283.19680494 -222234.367695172
 -979591.903898867 -443631.574068031 1316658.92633807
 -819080.428162624 1107878.86842474 995847.209715855
 27295.4133842456 -1690007.48956580 182015.509283362
 328013.975504224 1201263.62709621 -1157312.63282208
 679183.691539992 502495.655452385 1475197.48826982
 1513003.79008572 -714231.781774176 -301151.943526726
 1696598.52283585 70351.1198107734 -81266.0584289084
 -1497247.79716556 559781.225561827 578700.279411860
 -572766.372717211 -1067535.28661239 -1192605.17109468
 1688521.91778057 -114850.630102752 -160321.757536608
 -1599093.25544542 228485.265406765 -529806.798636040
 867428.667237135 -1304678.98039199 659833.513379341
 1092699.30941294 385967.352760283 -1243799.59069446
 -21379.4823556023 826933.649241453 -1485167.88865314
 1642542.19228772 82871.7768591474 430334.073894741
 207258.362670360 1398525.12208667 944018.778412619
 -948590.256972988 -385030.099328148 1357176.60862073
 1369750.70316447 -681011.329983230 -741624.284671776
 1678644.68828275 -153805.666003840 -220217.682317329
 1009443.13240789 -1218836.37662893 -620856.222841173
 1398921.83936012 -896471.730197844 -359661.124278656
 -765019.138580087 336686.774621917 1480333.65610624
 989868.350202112 524449.359828985 -1278715.57362969
 1343838.29631775 64991.9445474851 -1039170.18841658
 904075.077560501 -1194100.07477210 -804222.149386130
 187928.200252850 -277513.234617969 1666634.15186465
 1577835.31468051 -168653.650037701 609911.195237492
 -593055.440013281 -1207746.13895794 1039054.62267527
 233640.528226893 -1004042.10112069 1351780.88562718
 788901.189947222 1492871.03582395 197410.696006543
 1089536.26067489 814470.506998287 -1019582.52726522
 287862.074817749 1484373.30685539 -777027.227178572
 -1039497.89084579 806284.430174537 1076730.95645350
 597818.371474491 -1411736.33851128 734584.035529186
 681789.354691824 1135468.49458696 -1065774.16633606
 156286.051677395 1067662.85863681 -1313647.85629124
 525467.632610099 815038.304719127 1396279.45946351
 1433836.49118864 908538.549922544 93116.1631538733
 -69578.6996147300 -129184.810581900 -1693655.83554477
 813425.049390755 -149849.789291631 1485222.11459192
 -511090.436292072 -842846.218951059 1385062.02645610
 13074.6273017948 -1032319.05621803 1350609.64763696
 517021.717647220 -685008.450283184 1467464.46857215
 1311065.75371138 -512236.460017339 -953268.272037889
 5321.56315750218 1576105.87672440 -637072.952118010
 692247.605713214 -498594.704851519 -1470440.94498159
 1623371.23564104 -504644.122208849 375.783628815934
 1064683.14325132 1325061.91993789 25704.3344012350
 1525479.49618953 689646.803019796 -295465.046646647
 714660.249045926 -1505024.14506283 -337880.232051995
 1024596.31426133 -1104265.94901951 -787908.057223768
 1185601.09081555 732393.159777058 -973627.399454609
 95331.7600827565 -158531.527456632 -1689905.20749591
 855677.071682217 744771.675772645 1266148.45099781
 526305.512217168 -266339.536012116 -1594385.69968708
 1301927.04332627 -716964.887518052 -825195.324709212
 1540853.01789804 295718.030583476 654463.767998155
 1534286.68819956 383016.220075608 623909.395323248
 1242651.14562675 1148869.12728609 -160990.243932417
 1318281.46181939 950230.167723969 499195.969305255
 1242403.27134283 1101291.74508201 -365500.483680739
 1574217.57490166 369430.263243900 -524747.851325068
 1564570.69318962 330459.389289669 576987.987780026
 140453.999851801 -1491308.45351212 803910.299976879
 1320471.58110348 -12023.9505199199 1070612.08106016
 1681304.00824993 -131141.777194271 -214519.617091415
 -1310071.20278270 1058741.01526697 229740.954622711
 812262.735355160 -1493050.67937733 32076.7449135303
 1558810.01067921 -677088.710485012 40770.4395366404
 911404.387224527 -107979.870511189 -1430972.53310896
 613706.113973949 1122857.99817750 -1119175.91182075
 1556636.05937493 -527042.864152371 434867.793702585
 1487365.70896392 -402520.028364392 718137.086191613
 -679358.552929180 -1049424.73677700 1152032.84606061
 872876.684082867 -1212908.12790422 -810518.456081273
 1049146.13596647 -488875.887342290 -1245107.52634538
 -327731.134467047 -1171171.44350268 1187834.05971743
 813490.794523364 -1471081.01379480 253285.171453470
 865127.438428106 -543838.096471517 -1358600.25029626
 1486422.80111564 -606119.886364932 559612.311941474
 1666821.29596598 264445.047297448 -204390.763671323
 1245687.74206917 -1109587.34573920 327227.705786134
 7983.49860502762 673087.431296775 1561053.99444745
 -96566.3780621659 -908624.321072260 -1433553.89776036
 1436160.75135172 -564164.141525324 713555.266040300
 1369854.90209404 241309.313766693 977377.799163855
 -255932.443691221 1615513.02668794 -463266.926153590
 877615.568698605 1073523.00274042 -983534.074735094
 1675823.28984968 281473.652641693 -48876.2116568395
 389322.066001731 -1628055.84651325 -296416.075067100
 -800789.485897458 904676.616097068 -1195950.00713376
 392915.271796762 698223.313171118 -1499367.13120344
 695191.596864181 1529729.04168725 -258142.795111637
 1058805.20030775 1329428.22960714 39397.0826950865
 524803.067743669 -1610094.99939482 148915.523068062
 408994.602818278 -1105579.00976539 1224915.69833670
 -381318.967190882 575978.194404358 1553333.50083978
 503486.955353726 -574567.969972510 -1518674.59769047
 1125866.63019924 1241065.28467244 -286672.792892406
 1412852.00518943 882507.994203269 -339159.035851224
 435925.112159146 1164368.28178200 -1159403.20896963
 1235042.60535029 1167915.65698398 -25353.1288255561
 441262.802252855 -1383407.44692250 884008.470065375
 -28208.6474873793 1565914.11080783 661148.447612073
 1551432.33921078 -199151.034320767 665880.291328644
 1682134.27292761 -190754.759254667 -155038.413510976
 517247.223818963 -674992.304387777 1472019.25886479
 1056414.60540635 1007739.42146347 870890.027450435
 1365359.80823962 -776094.442060597 650745.734558839
 1607266.15322216 -199801.740589880 -516502.446425652
 1141607.10180753 887134.824284560 894273.464128400
 -475405.344077396 745728.211434014 -1451853.70939846
 1675270.89529406 -140673.208009536 252345.944942517
 753054.218084417 1488594.58277691 327101.685646089
 460551.545856138 -1445601.16561572 -766896.044832679
 -1551204.34503683 525208.337192461 455983.862085492
 157108.921076722 -1024066.41067908 -1347814.81422226
 35495.0067452218 -1699613.83749361 -7273.78143816594
 1023304.90439867 -91620.2369134868 -1354419.72992922
 237584.765770659 1682260.25057658 -59614.8337556690
 420025.229119683 263368.130311716 1626104.55839687
 1539604.97973072 516221.077814836 -503122.554859220
 -402202.301538574 -1619777.33607059 -323349.176880249
 -678701.185484893 -1556678.18930460 -78215.8280959836
 1618732.95943601 519275.559090883 7516.63264912390
 713821.887934075 1138279.45021249 -1041526.86260614
 1505978.01017075 -711096.376326038 -341133.663624860
 1044184.43051338 500313.786480111 1244734.90757325
 824983.856364387 -715242.357930334 1303008.06066594
 1577469.00144436 -128623.061136726 620522.084720568
 1679313.10011766 -126411.186855568 232223.434672250
 1020961.73619785 957395.513620200 -964899.457829563
 -216168.550157787 -530000.590115929 -1600740.61996297
 -697704.450307220 1547990.11945105 83277.1883737171
 1478967.97342008 -701698.541235686 -458555.221129807
 -763656.120070921 -1495690.95714192 264079.327101008
 1525339.34793647 -296561.727187167 -689486.051783859
 1392116.42095347 -850398.079088736 478366.990493579
 -1144018.00470788 -1041343.35444954 -704859.434957056
 1557329.35803000 680902.932366035 33112.9478181283
 869430.191010020 -885425.178693287 -1161943.80066174
 892424.728407028 1409388.48046791 -327417.493808758
 574536.085798477 1548037.25906307 -404337.644386313
 1669676.72548570 98777.8708791340 304010.796841067
 -1654955.29260594 167793.860282447 350668.219157517
 645236.260817613 1260785.48586154 -940260.669371519
 -761911.548753747 1512181.25007452 -150992.247478852
 792369.514462141 -709773.924541653 -1326036.02085003
 810195.989679612 -1037799.98060220 -1075431.84747763
 1488224.76729641 -173519.770948183 803167.436525934
 242262.675029662 191483.675373844 1671718.51648320
 1290113.72654505 -776051.891875553 -789525.195099200
 1585370.94706059 475678.863568815 387722.296199332
 1427169.28102470 -568462.970638067 -728036.877028069
 -48575.5247667866 -1544928.99139542 -707696.848897568
 1361169.51788042 454592.961460241 911352.172864031
 435555.372940993 336257.115310049 -1608484.58789806
 1251747.36782275 -1131570.67952115 -206582.488117604
 -1379090.28654051 -169558.074319033 979469.264960794
 133494.794381596 1373370.36137330 -992991.938725785
 1553259.33188389 112578.901067365 -681697.468786606
 1166185.24341245 -753529.107912846 -980920.925240726
 279761.035902749 -1490715.28766974 767790.136624808
 1281139.12397749 -80456.9616159784 1114544.40124282
 1279129.57809377 -753547.884975028 -828247.008745164
 541518.371728390 1547291.17210309 -450164.283137268
 -979589.126651876 -1152114.60654713 776554.619023130
 43463.5668266884 1542967.26101939 -712294.145547345
 1667363.21401395 -330579.472250696 -24842.0023254225
 343564.166433019 1489619.22489598 -743638.506509373
 212301.346090659 -494760.037834533 -1612495.16074005
 1645713.40970678 399553.524846226 -148271.217349293
 1118269.36140478 -176979.037847381 -1268129.35282879
 1133782.25872105 83712.8295229834 -1263934.31474212
 383830.107394439 199703.570146058 -1644017.31521553
 1370502.57225876 -974726.798404068 -248254.643269916
 381832.107779946 -692283.406749315 -1504974.39387117
 342213.490879701 -320922.143505835 -1633982.52881344
 -1049322.11583012 -153794.227629327 -1328634.80037883
 1034430.18657968 1142780.24538903 716943.163605954
 970197.123026766 -992708.036864544 -981452.136385228
 711773.327316673 -76154.6805097209 -1541940.07508626
 1611759.64180186 -94313.4825777525 532292.987050181
 523772.026780702 -1079111.36355664 -1204649.96119411
 983126.910896623 -595339.092235525 1252610.41123210
 1368358.41245314 567270.165899865 -834146.158624885
 1291322.42706210 20149.8583053622 -1105477.44100761
 633097.212547638 -1232971.65979541 -984362.131334684
 -990379.680100213 -50653.5069886166 -1380790.46617304
 559866.245098009 1046702.24322391 1216948.72596584
 1317852.64598788 -519551.300602186 939856.823939327
 -604235.439858390 1586909.47929008 81350.0937825065
 1542533.44912379 -691074.722352584 -181676.323332341
 1251686.90532177 -55363.4337600591 1149005.99704628
 -33582.4683469789 -1664969.29495773 341686.207897951
 -626341.349981850 448201.805463548 1515523.55800962
 1016072.14647879 -1291566.03757645 435263.786374467
 -86625.6252208134 876219.544963628 1454212.95210806
 1521855.00670806 -746123.776200600 131364.565792161
 1452342.93107757 767740.580269605 -437349.301995899
 403618.140735909 -1472190.38355977 -748162.997630211
 -1395116.36243815 956374.989820887 170285.683785897
 8823.06412741459 -596021.830617529 -1592067.87888166
 1352469.55935167 1029963.39063385 1226.77672219114
 -1322382.50659484 620300.114475862 -869788.637677677
 1363657.88534015 1010624.89705571 95260.1133777751
 -685702.147136720 1430630.24518288 610827.035239969
 1042303.39074765 -979107.179949452 -919213.126433357
 1230297.08420684 968936.991020839 -661460.650397014
 -1232312.38678234 -1072053.87995743 -471281.932447046
 1504168.02215174 734593.657763472 296396.219796774
 1378184.15414008 -666200.835213898 -739449.041136368
 -343412.706741552 -44491.8388337521 1664358.19135354
 1682873.96876934 -62785.6140797013 -232364.308582786
 965964.450293438 -536799.849767278 1291804.39775499
 1630041.50378689 464835.382074125 -129972.164343646
 -242225.153633965 1630799.06137597 414513.445333491
 1292410.86807398 944517.371523099 572329.523068089
 1012595.58510504 1091621.75208185 -820373.165947985
 1342930.80345310 1037639.20601380 -99205.5204101837
 -148903.216911104 1157379.76895065 1236244.27295631
 1098201.75381927 688764.320425573 -1099798.44463292
 770591.434663483 -834320.693417558 1264949.73076345
 1576939.15591988 531877.184287091 -346943.164454261
 790116.417471204 -665467.196035773 1350136.82930389
 -760803.950659579 1135539.94346399 1010804.82065459
 -459190.856839231 1355264.72655154 -917824.208637169
 -748711.430067877 -955092.607136657 -1190474.40387377
 46746.4844177441 552967.821109616 -1606873.16083500
 215533.010502457 1066782.51291344 1305955.81530381
 1053584.61598732 -1153334.27461419 -670656.028046429
 1288099.14278111 -848352.395731441 -714911.750514206
 873041.026484912 -1454175.35469713 114775.449751402
 1192977.86152353 -1136686.08779451 -418029.376634156
 263889.122979340 -862662.853540141 -1440893.93499146
 257463.095763471 -732273.420816180 -1512444.50856422
 791203.668881277 789867.627596827 1280666.18805345
 1035698.41337681 -1293141.26127541 -380938.938565999
 937195.900572576 -662782.223734962 -1253947.19500101
 825469.361008670 1368622.13267437 -579200.994465482
 -940779.108954330 -535583.049200051 1310757.59222088
 -1313366.32315526 627192.801723174 -878463.482831399
 1156429.20877224 808895.296589761 947818.486975951
 1368269.50701393 -307827.365652576 960770.976420116
 1138540.47542495 10622.6969050398 1262383.75469965
 -181403.919846416 -1605252.88493941 -529391.908946538
 1660616.21474151 -225515.005788096 -285476.390445836
 1303544.39485505 -972601.460762494 -494791.278383769
 1450090.44448973 317177.848200320 -828634.971148691
 -431977.116719358 -1608446.01805549 -341023.720043436
 1583436.21888836 -374799.896930541 492193.841868630
 1017110.18224057 -1340683.41348367 -240945.765665941
 -508002.757044758 1622127.83745526 -25188.8425230182
 -787237.493715634 -784110.519189295 -1286634.30009658
 1660358.28770315 -86944.6052623113 354472.836859526
 1281892.40091167 129591.833368629 1109034.63841716
 891110.875894806 1365725.82783162 -480327.357180114
 713608.567683971 -1381853.06300359 686472.814025169
 620190.188597781 -1248863.67609733 -972472.955146683
 -28748.4781826747 1659517.21492854 -367663.077229699
 54883.2879265326 -1520837.11967115 757655.779451821
 1348820.65460155 1032157.72410010 73029.2701645103
 -104090.785476705 -1521719.71130264 750689.169105204
 -1211195.13820237 172196.740782773 -1180404.43054858
 1656438.02168121 76686.8012426605 -374609.416384616
 918392.200208378 -1399554.97048271 296313.434041634
 231262.986688150 -401777.003148807 -1635571.05340271
 1592951.34583689 284940.825743936 -520878.810877158
 611730.269587041 -1219253.64908496 -1014498.20919703
 175284.507659439 -787061.910982983 1496599.10786236
 1221482.63025641 626722.018155695 -1002596.47712364
 1376867.33320318 -306002.064893647 -948998.990009362
 37316.9109204914 -849342.637483312 1472149.62972934
 -65893.2024147909 -1112304.64819234 1283914.50474135
 414475.599344968 -910156.534456720 -1374709.08207277
 522872.687056769 -34364.9375336856 -1617227.01071876
 1026917.50259296 -1350413.92385096 -108732.134797821
 1633928.12135615 353933.852400518 -308236.471506031
 1233908.26315690 -1164567.77077860 106076.884272123
 380424.942231165 770084.705641045 -1467053.64914381
 1174042.23662009 217658.869311084 -1210061.75183018
 627677.257259442 600793.862732955 1461187.18692085
 1615367.31203362 -505697.004455140 -157667.329838457
 1583429.21933719 10911.5688351777 -618573.233348146
 1193950.03729025 -1157850.16830582 -351946.439403464
 555081.325411029 1606755.94302957 14834.4773785118
 528618.981191563 -1581603.72815753 -330290.205428816
 1622141.95902449 -20478.7397904959 -508169.347746177
 1126795.26368055 104487.804450564 1268627.10536555
 1542382.90051912 67072.8765126075 711727.628677255
 -794364.403349822 -1502985.95807019 4290.05064234862
 697318.405589097 -1446194.57679349 558809.705785235
 1626781.03717781 -288645.987461532 -400333.549682080
 818204.079435420 -1109376.24972508 994900.206523825
 -775452.151467803 7476.66961298347 -1512817.92037094
 -609713.378621556 -3464.93682186999 -1586895.58262121
 1083700.49613807 -1060658.42717263 768503.048489581
 1695070.38173593 103597.612878243 -77485.0667388985
 -1175021.05806276 -104124.739356025 -1224125.62744316
 1427029.80993577 458425.767977842 -802141.967988595
 481912.702629698 809617.641506519 -1415019.23011864
 504607.733830312 1321321.67234124 -943122.512275041
 228668.614585400 -1391315.41303159 949711.580515021
 1366376.48769194 407240.896923439 -925834.837190534
 1588931.17433886 90111.4727129590 597643.410153260
 333445.758475879 1491581.36819363 744311.056086134
 1023351.29452551 -236646.438471317 1336693.90331212
 1670219.52548638 274414.320840757 158314.614617701
 708354.399440951 1029275.04165317 -1152747.55841100
 293655.789454928 -1645473.25053820 310135.549530910
 -87495.5740180632 896694.436194799 1441625.33711937
 1206664.21398639 1192464.10830107 -109502.625988410
 -429690.674002491 -403633.399369347 1594504.93997003
 1197875.86470787 -886058.045207941 818531.950062212
 1676510.93980149 -194852.558142300 203331.132174430
 1498702.15259507 402051.401151120 -694439.722826489
 211149.236375623 -1606388.68185093 514714.875245717
 1272663.15162913 1113359.35223346 175383.737215612
 1517252.25486276 -166244.234467834 748537.540554965
 -1683452.88239263 -152091.047489997 181258.671619699
 -323019.546860402 1606794.23106142 -451520.399731679
 651433.124770011 -503998.249495816 -1487151.85790071
 -513046.520114512 -567697.788446445 1518058.78976784
 1168655.18681789 405476.920044548 1166118.99977439
 1130666.51170484 38288.6177233825 1268907.88517609
 -722393.044700148 531058.281972187 -1444342.54597640
 -99217.4479753865 1690891.09140069 145062.796881365
 1256568.20952143 318436.820678269 -1099833.77201122
 849891.466389650 1243819.70250134 -787779.818875514
 1021420.61722519 1153495.27530660 718434.807447883
 581421.213860453 1218702.00135965 1032818.86309024
 -382163.620184324 265268.212473485 -1635109.70361586
 -748154.951896613 1435677.48516260 -518743.025543250
 -57340.2438930477 -1678256.38752732 -264891.664938772
 -265471.113558923 -1066865.16221533 -1296658.71127180
 1217426.12849036 -790143.677634990 -885181.670823805
 -129900.068076723 1574533.40001718 627670.729398789
 1283151.84961319 217918.000763778 1093632.97123732
 704322.560434790 1460513.04048162 510716.545106680
 1174021.35353331 -1134332.30079605 -474303.798022494
 869964.062863910 -1453866.79813140 139405.389481399
 693383.857428563 -1499851.56972548 -399579.898204991
 1508410.88897236 320328.899052521 -715601.835143970
 1223108.10452695 -243964.780086108 -1155200.30761683
 -508556.573686636 -411621.738142535 -1569056.32660164
 1498715.66458977 646277.851141273 475579.957354661
 1528896.64574068 7670.31848910777 743247.073897495
 914851.355639390 1290708.85850465 -622187.784886834
 -373411.034236393 1354988.47781726 -956331.754410036
 739693.799534044 238474.014141792 1511946.83355930
 1525852.43061832 734361.933268393 -149956.363461035
 1543049.62250718 709482.477893076 75049.8237383059
 390144.145127937 1065569.59015860 1265839.24514593
 613665.970084954 1357827.98658297 818362.533362651
 1335434.98673793 553916.790861915 -894309.557702199
 395443.561680240 -1400061.92965773 879460.620294469
 1559255.04445924 473880.623815285 483901.705618873
 1086229.71346529 -322137.966211507 -1267411.59072743
 1506819.75114437 -604417.212059959 504156.792403782
 -1581164.93528928 -342407.395662820 -522182.556973179