# OOMMF OVF 2.0
#
# Segment count: 1
#
# Begin: Segment
# Begin: Header
#
# Title: Oxs_TimeDriver::Magnetization
# Desc: Oxs vector field output
# Desc:  MIF source file: /home/martin/PhD/repos/ubermag/oommfc/docs/ipynb/thetaevolve/drive-0/thetaevolve.mif
# Desc:  Iteration: 560, State id: 1129
# Desc:  Stage: 10, Stage iteration: 50
# Desc:  Stage simulation time: 1e-11 s
# Desc:  Total simulation time: 1.1e-10 s
# meshunit: m
# meshtype: rectangular
# xbase: 5.0000000000000003e-10
# ybase: 5.0000000000000003e-10
# zbase: 5.0000000000000003e-10
# xnodes: 100
# ynodes: 100
# znodes: 1
# xstepsize: 1.0000000000000001e-09
# ystepsize: 1.0000000000000001e-09
# zstepsize: 1.0000000000000001e-09
# xmin: 0
# ymin: 0
# zmin: 0
# xmax: 1.0000000000000001e-07
# ymax: 1.0000000000000001e-07
# zmax: 1.0000000000000001e-09
# valuedim: 3
# valuelabels: Magnetization_x Magnetization_y Magnetization_z
# valueunits: A/m A/m A/m
#
# End: Header
#
# Begin: Data Text
 -1172580.56170562 1223002.38703205 138996.358312192
 411080.175730080 -1385987.00784965 -894456.876095043
 658746.459510049 -1528666.58078489 345299.271465229
 283161.535660163 -1644669.88203203 -323852.626759957
 -287515.783982954 1280938.69338273 -1080060.52504275
 -1260439.42662123 915974.180729010 679914.518198104
 770242.280491685 981086.693866833 1155073.90605987
 -1266598.10787376 276609.002874388 1099643.89356711
 1268176.29880907 239031.665655872 -1106613.18352562
 -45865.5102042260 1678564.07450109 -265177.304398434
 527901.211280354 -1570872.74088943 379050.317318526
 1375950.29701068 911070.264440161 408303.506486497
 -99489.2567351472 -1447791.40929827 -885438.830725437
 -198909.158928868 1085342.67906878 -1293238.73104930
 -791100.225868893 -232590.639499035 -1486627.73653918
 -1011737.03197324 1051613.10857309 -872065.392049954
 906811.057990216 1419212.77018891 -231362.957362203
 -363770.612453286 -503321.335871737 -1582510.21303866
 1125489.02224470 289578.648344743 -1240733.11684242
 -925926.133426115 342619.820823244 -1383933.68837442
 343626.539333815 1555790.54565919 592820.866285028
 -183126.681272410 1415272.24866327 -923833.903236808
 1157438.56938391 -1219337.96374598 -252093.015116100
 -1661610.90139475 311377.550654012 -179145.843699618
 520392.149747515 888802.105258537 1352487.64436839
 -181655.333597578 -1688746.95691886 -71659.2999745134
 74957.1440742361 1640269.23326376 -440338.811553714
 1244888.13749892 -946484.240495468 666649.163809705
 443923.439660839 -1537543.28735006 -573491.603464661
 -1154558.24508613 599081.741219191 -1094575.86582265
 892817.242604873 1019413.66767985 -1026485.82330928
 1537030.51343721 489961.434911612 536166.945141451
 1116889.46568861 1139147.74641057 -587282.158150179
 833547.359151103 1477309.91805062 -112934.521212469
 -308370.046638404 -300293.641506049 1644606.83544951
 -217759.721904776 -1662495.66307223 -280515.371739186
 -615657.232877462 157085.934546463 1576797.44443392
 41618.1003943235 -1359439.08417774 1019898.67640348
 -964884.492597393 1399460.62651846 -22535.9883213435
 1533182.73735103 427565.829071270 597108.160804559
 1577636.41066612 -597896.065652571 208766.976358103
 -1584369.93516357 -280470.697026344 -548733.174374696
 191321.318262724 1591105.74591328 -567255.373266700
 -599537.891916035 -378583.810890955 -1545065.89318649
 1104867.14667764 -1250298.06437855 -325612.251617867
 77675.6426198089 -1698100.89479156 -20490.1354731743
 1643517.80826062 16548.3790630844 -434252.651207308
 317963.471992489 1544143.97096139 -636017.788605072
 -1307518.96883029 -996393.567251934 -433121.236246791
 985604.568025432 602580.380688681 -1247189.04753709
 -4143.53986438192 -1688816.32740476 -194633.613151739
 -1693267.63728435 -125159.034101579 -84734.4363775665
 -44610.6583274484 627859.956988149 1579177.55922962
 -1311294.78663725 401686.222634510 -1004566.65338024
 1157600.33060261 1095019.48037428 592362.905818353
 911367.345699189 -204343.527652479 -1420441.22859756
 -327080.685556650 1650860.83497988 -240159.798187188
 -388751.709760564 -1220690.44210949 -1117491.36582829
 -762346.580082451 -1307998.46429964 -773283.718454220
 1390892.13338725 94255.4020396527 972900.299346140
 99494.0767494277 1452510.21853947 877675.904722351
 899189.208090011 1437090.87196835 127391.497988333
 1370437.80110701 843980.833181814 547354.169179991
 424524.536376823 -1548483.36414478 -558550.077415550
 -77869.3790524378 482107.154221459 1628345.49517431
 1161920.76694823 -1137298.96634563 -496478.793588987
 1228439.73951514 -1088939.33814957 -441754.370901248
 979308.150557504 -1383436.26999807 -130612.530430510
 -2662.18898538489 135158.846374312 1694616.47548835
 481501.457289718 -769160.527692374 1437549.45280775
 813250.118466795 -1447894.60429324 363628.188775652
 1407542.39942756 -947937.273530202 101189.521521859
 991824.583280701 1167730.39617629 736674.770740806
 324906.005132382 1464958.09819335 798957.982854310
 -237294.517061593 -1683330.69591810 -9438.23883966871
 832814.508573916 -1208971.76015619 -857209.004533683
 473079.139598523 1605332.52731686 298502.268693541
 -187329.647798918 1512375.82064832 -753410.233653523
 -716777.120900472 -1460484.95065120 -493167.585993830
 -270458.229823298 -135314.264022719 -1672884.45383201
 158917.752639506 1575639.55576198 -618146.534580746
 -613703.679248804 -1560389.65396008 280271.157793353
 40572.4356216023 -1061909.99315703 1326914.10569825
 -9791.53793476253 -1684308.53592726 -230236.577431625
 -231880.290721249 -1510430.54283372 -744869.858465264
 563730.389372959 -1598126.08118907 134911.366165623
 1342715.61189494 -270693.475871048 -1006896.13550478
 243670.943314794 -1643053.19508508 -361940.146301542
 1156722.55303427 -877761.137346288 -884040.904634191
 1029557.78194096 -677313.449887604 1171006.94457640
 1202878.15814276 1137264.69141309 386927.846410906
 382167.986593065 1265136.92705694 -1069287.70020997
 -386244.876004993 -114092.665741114 1651604.60140555
 98113.5544426462 -552134.724058443 -1604842.97578409
 -173953.469017660 1426560.77984677 -908110.418407199
 263619.097743841 -250483.171214569 1660651.42406316
 838719.285952974 -961331.046809590 -1123562.44944841
 112790.108397847 1375054.24263907 993229.188680995
 -1555492.00947671 -638063.613142367 251633.531227113
 -394974.219685223 -1615467.43046056 -352505.811165139
 -1670741.73836153 258222.077774160 -178727.172658986
 516072.320495714 -1324583.48641466 -932281.045359049
 -1080580.92587617 1145567.31349829 -640328.347706797
 594245.615439761 -1511551.57476847 502079.660358369
 -759036.152199878 555565.429149613 -1416054.79187333
 -1051839.58347206 821604.631117420 1052900.43250429
 1145425.07268473 -1186997.75783071 -411141.977630669
 1686638.97696113 41651.9555531195 -208600.278029842
 -876708.668921803 -1173787.25770445 862325.566991968
 475232.503847355 -1075151.82370431 1228089.01276425
 1651106.86221731 -403774.099743279 -28506.2434460172
 433395.731488907 1571636.09057337 -481796.781573360
 1538038.81767535 -411337.049768455 596018.814142312
 -1339253.38067326 -471699.016988742 -934826.411547666
 615595.874119103 -1263068.69201110 -956921.730879236
 292443.384976331 180507.752288830 1664900.54295961
 243592.681108494 268527.317297604 1660890.02814013
 116472.494887651 -78675.2259617056 1694179.55564176
 -318482.878974641 626686.003190410 -1547847.96062315
 -680793.866753776 296735.708418477 1529204.90135882
 984954.519817741 1327750.12726770 396161.827327179
 156323.171731678 1019607.60757874 1351282.12914525
 1286200.90499122 -225973.394706827 1088403.99525380
 241257.273567637 1677560.24831430 132614.257251578
 -1684463.20722506 -158938.829026567 -165294.138228598
 1693557.84725202 -61832.1154269601 -134307.883286592
 1083448.76628019 493085.683116587 -1213674.28907075
 -953590.585956052 1329849.98594571 -460612.645566943
 392357.765591535 1632395.78678137 -267094.326181666
 1351659.78309914 400648.123579732 949998.374643045
 -1676348.28404031 223750.361415330 172604.189872728
 1108760.66425664 672886.124253929 -1099033.23570478
 799274.980077321 1148351.39887836 965633.766454193
 -906953.719944559 -1378718.01417738 408131.825837557
 1680649.62259504 -87544.1677089398 -240318.257257568
 852088.876642283 1223252.67484168 817066.361928559
 1437369.37547022 -906217.287305884 52340.2966012539
 -344151.349490772 -776384.127237648 -1472680.39153685
 -180777.024300924 -1605775.59465091 -528019.324559632
 -436378.827675796 1244306.47763994 1072974.79395351
 -1098192.21541194 -1297613.20550124 -13184.3436474689
 326857.271318994 1659906.32169587 166959.058993510
 1676613.25517768 220320.626000643 174432.836132406
 303636.209683030 1669785.21443365 -98093.7807818858
 1241553.53767039 47917.0372121281 -1160279.60881976
 -235229.798395910 -1173127.64523351 -1207658.25875349
 -88188.7698349088 -1685600.16316788 -202422.406870951
 1689918.41026655 136386.162882508 -124798.161910996
 121056.176281417 1467669.02305345 -849289.727333046
 -415199.598010609 -208856.553207390 1635233.38823367
 1218128.12740232 -630406.346799501 -1004366.31920143
 1462176.35436987 -853355.205086592 154354.146926014
 1426128.56076212 -699642.373495560 605522.813268067
 1550932.81998982 -538210.531742814 441516.490518237
 1372681.12270596 319722.947711576 950538.674685736
 1370595.48384789 460605.304607632 -894041.818386069
 1070472.36565568 350378.065935015 1273312.26542399
 -219741.446412929 -1607258.75796381 508363.041218576
 -1017070.74719598 -390294.272607560 1305081.40587779
 628196.976102817 839658.285683102 1338036.81657083
 1326206.15985079 763109.218821235 -740838.404595668
 997322.567097490 -1180530.80989276 708304.104217969
 -1433.84074135577 236017.863773706 1683536.01448868
 833517.801295677 996831.588450216 -1096163.70090924
 -289708.839328423 -1622324.86548788 -417289.850385458
 1208073.44554097 1193634.68418167 76123.5239415221
 -527610.761258233 89673.5716294102 1613562.99386040
 -469929.614497341 423679.237244318 -1577866.30021255
 -491901.978980784 267588.498816673 1605125.80141739
 509372.719441176 -1155062.49986471 1138582.47575456
 1388658.23365763 -428329.227507325 882135.127380064
 1116069.67443037 1090074.20472036 675371.534801517
 -1220140.14078306 -256581.047925966 1155605.55670830
 1563673.84130404 306448.046157021 -592464.102733661
 1655599.23985531 164019.938483070 349411.815442067
 19537.3792298391 1426671.51770960 924243.837614840
 1098930.86017244 -420353.233252926 -1227050.98665641
 1680294.88442320 233741.423440655 -109425.994851157
 546018.920664128 -1137300.77788756 1139478.07301989
 279394.562638460 -1041754.68732013 1314034.18898239
 1485755.45710181 767575.145290153 -305547.243523796
 -275029.152080601 -1677556.18923141 12813.9563447442
 -673958.600906201 76539.6870983965 -1558820.54148752
 -84580.2211493546 -1611154.30406886 535749.936696892
 -1676109.69462891 -154273.105889021 -238445.172671478
 -506339.570117429 987464.282471811 -1287841.03466838
 1283779.23562630 211320.665328020 1094191.23126630
 582016.006194545 1537249.57713525 -433729.300521458
 -507784.285447755 1482949.59663859 658039.218650182
 -1417940.83673533 -937443.488830022 -25367.0804098543
 1543946.88010308 703979.732142856 103153.129627956
 -860803.016091482 -1316377.42198329 -645111.347273034
 -1462038.78293295 -732945.393730678 463932.804411274
 1379392.90011015 -894539.669143889 432520.528360958
 -444546.555699839 784807.452031710 -1440991.19464725
 1568336.42109292 88085.0437599897 -650047.610055806
 1250807.38316385 -927316.791274810 -682322.840627955
 -946504.015921131 -1051966.16888015 -942070.765588650
 1482967.39512531 789013.839550991 -261275.459988613
 771587.844450820 1513538.62683880 -62072.7263994569
 1122557.97779564 913741.158461417 891594.460402799
 -861216.337946864 -783406.831432237 -1238781.72238643
 737726.004409900 640872.037184621 -1391058.36483314
 1665204.66550403 -313772.892994328 -136528.361909047
 37443.5782428255 -1204775.06624958 -1198797.32156511
 -32344.0271967389 567541.717083737 1602139.27711493
 -958321.557300506 1111606.05690323 -857876.312220579
 1073637.06543730 1294381.49438293 248756.906875321
 242164.604935606 -1611409.35291519 484475.181463216
 -1276166.10252843 -729896.005208606 853611.094315156
 243040.026563790 1478205.40555340 803641.913093504
 -1054065.18699985 -75345.4627459027 1331641.70961959
 768750.553267220 -1298072.04234620 783601.658835992
 724387.189575696 -276146.014938567 1512946.32357271
 -1412947.74167928 487009.855476370 -810185.213363161
 1115776.14580890 1282422.65413634 -20874.1131969122
 -956456.795517782 1191635.09085493 -745114.896207976
 -1149164.98111582 -979397.581394174 -781153.137186506
 -1436807.88108375 -754070.767922264 506912.605703158
 -1033550.88654184 963745.636456691 -944969.265711464
 -1431977.26196500 580073.833919417 709193.533823629
 1383564.76237688 -976213.131056849 -150852.481123731
 -195086.935250155 -1294492.07521659 1084542.00236604
 -612495.657071066 -435905.777386953 1524741.03483502
 -1261300.70471944 -1137943.61769813 -64844.8549565467
 -1306941.65856382 -1081280.74279905 -112851.479221076
 -1394213.46406346 427440.662169763 873763.867957499
 337175.985679032 -1236031.11747939 -1117380.61165568
 -669112.782124614 1164524.00584433 1042195.72279382
 483928.669126029 -1554139.42780778 -490370.963792941
 -134594.460753513 489671.330257840 1622376.75015947
 1140502.39867759 1208170.21174029 -359970.857256636
 332028.347605778 1503782.35403235 -719997.088943482
 -1194343.19527785 -458491.820675888 1119522.03295282
 1238764.85798451 -168916.626516382 1151923.95578395
 1580135.22870370 583332.879612486 -229990.022767318
 1171837.43338143 1043671.50621841 -653870.642278595
 431372.708769566 1424103.65888827 822098.750071943
 -353607.533765375 -912414.515050039 1390130.01722514
 830821.754887023 -1257734.69632418 -786027.127565432
 1698841.25470164 -2902.87011278701 -62689.4302803969
 947703.618512325 1350307.96064671 410519.503644796
 1414679.46773154 -56420.0724048999 941009.446822212
 -257321.470097102 480016.413874819 1610394.33165850
 -943077.848585176 411478.308435600 -1353251.55577037
 1506976.09435210 -105787.752422588 -779635.814011040
 -173909.723101825 -1332940.91373314 1040684.35594416
 -892870.787531141 -256221.262257654 -1423774.00648439
 818116.067597528 1185011.19874027 903567.683573793
 1135431.08001799 1261064.69092282 -102528.570832329
 -1653738.56915935 54293.8582902647 390129.365501673
 -742973.573805317 -1200157.09833619 -947424.513056432
 -249642.352051198 -461403.035102598 1617029.97351949
 -426616.235000166 -1046543.19325298 -1269939.34213022
 -39114.6977203472 873958.422590914 -1457623.65376137
 1452792.27266948 -569419.090083685 -674652.882836872
 1316723.68900529 1075221.89845629 -11687.4245384903
 -1670585.36947069 207472.033209968 236854.129679404
 1202526.34690224 -999422.801472201 667146.497332790
 1152061.73576797 809471.820361967 -952632.735643265
 724584.935549901 -305509.449353461 1507196.28699446
 1381766.24319787 -990296.422922156 5919.78939150714
 854002.182220947 1238245.75050726 -792103.360750719
 659823.560176736 -109528.997748388 -1562893.55622446
 894025.673352881 -1044380.77710668 999993.443876491
 1664892.36040275 -144583.763991412 311815.592077484
 478394.729150430 816396.911130484 1412315.32124299
 175203.619965219 -38008.7645650025 -1690520.34160117
 1245663.96587236 -229280.010273784 1133910.03215246
 940943.173970505 -69368.4926770635 1414147.78420858
 795264.175248024 391942.953639464 1450494.95437228
 -133986.481276186 -1013785.58954180 1358045.06599472
 1122925.34353565 -343432.056887583 1229265.26638773
 946515.004186875 329866.074551941 1373061.44061685
 783026.961188812 -1414914.70901083 -524294.902012414
 -750170.259555138 1392223.19632488 -623665.898774258
 1200403.70624932 315268.455181430 1161738.67250360
 970220.051461582 1292738.57321507 526782.719025352
 492887.826093552 -1407979.55201694 815263.866481858
 -720689.864355947 -1299197.84127745 826251.226101741
 961175.576278949 -1011729.37863779 970847.658474805
 402287.606271558 -984097.915030892 -1326542.86605151
 1414146.23071679 845848.074711185 -418008.938489200
 1617251.97320951 195327.414292086 -486151.474723576
 -795393.594375848 -1133483.59612380 -986186.578363406
 1018235.42856834 1010903.25225453 -911740.767208239
 557442.051973035 -1560362.54907789 -380167.166029928
 1405623.18507662 915069.742571897 277255.888674071
 1661840.00647754 263262.256232255 242859.583533878
 1410439.72986251 879589.811874056 -356344.680432768
 -147109.462244024 -1616572.97507939 505025.368037345
 -1067929.27521365 976574.311052570 -892092.864075168
 -686344.687673896 -1478469.04356735 482763.147842577
 378328.541195739 1636806.31913662 260254.853078954
 628147.247460411 455108.101774083 1512715.32391508
 -282309.817740333 -962720.738424079 -1372395.69607880
 1027048.19936584 17736.6802267488 1354569.08511671
 908685.689019013 -577381.017930547 1315644.89080661
 1600773.55095836 -545674.637774819 172520.225601162
 -1148646.08134284 -7142.54274276964 1253220.31738194
 1565492.28283158 -538297.111794595 -386613.672583343
 863431.031921602 -1389976.92477380 -460924.073694548
 -102369.897380812 -725116.252653994 -1534186.04616496
 -50256.8755966092 818112.211449103 -1489351.08551783
 1300472.80417384 1065739.37078770 250938.397136157
 891877.392181780 44457.8000629186 -1446574.65114269
 -1064933.28232417 -1282248.67219099 -334298.439814961
 -1652759.35282851 -232202.439086367 323215.947812343
 438045.821285713 1543376.51185047 562231.981589810
 1240349.15241168 1155051.61287391 131870.207814390
 946034.906748554 -138993.993873351 -1405595.46985624
 1489446.37037966 482297.801208716 662524.218962658
 1153238.78509531 -1162987.75411699 455521.446614528
 -389243.195352645 1514737.30068620 -666378.754749537
 350388.421676698 949963.189642535 -1365576.02947587
 135532.040989166 509276.429068431 -1616251.39896633
 53299.9771461546 -1395932.73423919 -968778.051937451
 1231582.56552146 1068541.97583097 481063.852509032
 928695.062562439 1301378.97248082 577873.905585739
 -1692278.87465586 -120702.270952506 107810.816620681
 563308.882203638 -1324950.95906005 -903984.545949956
 1176941.94505021 -1117075.79182263 506901.699844533
 -147549.443021242 -1692556.18703306 59014.5371940365
 1613095.48612044 -459976.416139242 276305.355093863
 1646597.78410785 289475.009062805 308090.825081196
 478415.954381313 1439844.27358604 766789.829363238
 541716.190516989 1501740.78406064 584224.431550676
 1527500.61817759 678893.385223055 309589.458747333
 -756592.138727769 -1466275.93639164 -409393.715113182
 1675380.14200833 -238434.118004232 -162020.218292934
 88423.3334010416 1578508.59999741 -624893.522005529
 1347966.08080429 960095.485615587 -388849.718402474
 784840.777152509 498609.001684018 -1423170.41072329
 1259107.13350368 1054103.47988987 439903.489465823
 -590183.656445560 -1366056.20102518 -821932.909248188
 828892.894857245 -1338191.23140079 642013.081686978
 1212776.08178655 -181039.645958099 1177454.38214728
 1136589.24817377 734280.010134609 1029076.16222148
 -980629.907668027 551280.498546398 -1274541.01389851
 975735.641872239 -860721.015176232 -1094120.32757561
 187050.431980772 1636395.32688591 -420977.992348471
 -217016.357512585 -1545826.57894245 -673293.463808348
 -1121041.73773556 46723.1241386199 1277138.35269541
 762313.291768027 974559.963362595 -1165809.29958741
 1099379.03409750 1062769.44873863 -742890.865615296
 -963927.516763173 875004.115766332 -1093257.30723319
 1235804.24035079 -779671.819232663 -868849.661233420
 28514.9555585504 -1657755.91693378 375542.563740160
 1057221.42196947 1240421.35695901 -483360.861188431
 60054.2178573462 1550168.28538175 695249.435752484
 1385322.41120494 -280352.461926551 944608.021406256
 -437638.281883578 -68819.6777830042 -1641260.66978400
 -677799.366032191 870376.695436564 -1293457.54760150
 -1208577.06651875 -1195205.41197253 28731.4718818596
 -1132951.37506400 364772.227711471 -1213821.40516264
 510690.023619755 1495377.21679363 -626931.159912942
 -143144.571140734 -871072.111566038 -1452839.63609368
 1030864.02699616 286260.527837294 -1321126.13631234
 -1027992.07550704 -934872.424892571 979410.966790867
 1496053.94564370 232036.533480104 -773292.725204667
 -22146.7147763227 1420339.23536770 933887.562557569
 308580.862752816 742919.577676683 -1497614.22010057
 324267.713363953 -394295.468085732 -1621536.78154915
 -317234.808533142 250163.489388678 1651296.55266152
 14041.9431009951 3451.78738757114 -1699938.50153403
 258934.946943613 -231206.208897986 -1664180.39353260
 -497492.575315307 1027957.55860999 -1259287.25682536
 263048.146239047 -1593462.03355648 -530739.503310480
 -1449214.89297483 188026.460642126 868574.835047821
 -368549.419236609 1385171.68011932 -914040.886490187
 -453299.522378609 638918.964418708 -1508741.89307431
 699844.109053229 -1505860.10213229 -364147.739014860
 44836.9954474839 -86105.0031892064 -1697225.84598074
 -816983.722342822 1489611.83308062 59951.5151856544
 801480.335039638 -954931.539942561 1155740.03416325
 -246871.284160600 1024357.93766674 -1334070.98184318
 -39946.5228518281 -1443229.97711825 -897491.787404935
 269393.501384366 -758254.867687435 1497490.13253516
 1369076.96218022 1003794.50722366 -89581.5767610638
 -1297154.54482185 983375.304516217 -490268.393143660
 269816.122667422 -1485797.42945136 780772.219398497
 -948699.550602118 -82750.2679528982 1408233.48768628
 992550.441051670 1072980.58525095 -868076.198062512
 1615919.16324895 64297.2940601556 -524090.751512914
 464170.569166833 482026.201565997 -1562752.83513523
 182232.156675564 1667366.07282785 276914.824911903
 1014062.72788914 -160918.378169229 -1354910.35108357
 -736719.747023212 1526069.00256973 135489.533698633
 -1572501.46972760 -599557.189216710 240354.539302017
 -579430.029686711 -1408315.45021419 -755584.828715647
 -1560375.57650838 -135691.502014339 660920.476696885
 -143325.667068672 -431416.172986021 -1638089.69194163
 -1696469.22299928 -21956.2396755455 -107285.129237673
 873677.691610063 -1267412.27482364 -721355.263936758
 -69571.5806478721 -32921.1421493728 1698256.75136763
 1386584.08522031 92037.8518671833 979241.343304827
 1087589.54604767 -1301546.67966903 114565.352399200
 659750.405187944 1529697.65343805 -338754.323840231
 -763826.811295768 -1103252.17623169 1043744.81459108
 -856033.240086574 -554781.688309565 -1359935.42868155
 1482959.34471090 830462.848854133 -34103.3518540626
 -1377725.73282233 590916.282453955 801679.332557575
 1533858.93562544 -160529.079283516 715197.301663235
 -395642.311583599 632188.529365491 -1527679.55560827
 334433.366764020 -512480.199339354 1586038.57723574
 1234554.05376010 1056949.22952951 498733.009275983
 399616.313585234 -293897.811523994 1626016.87515781
 -484364.069343951 -1369532.66430333 -883046.844586846
 -592128.472375798 -1502624.71574785 -530568.408243085
 -910712.006245375 1397035.42654069 329993.422162920
 15909.7140076382 -750406.851029042 1525331.58327259
 -1482577.04883179 456021.410748580 -695708.104894639
 -1249734.16976684 -1149748.25660389 79015.5133724002
 453734.900087747 1458612.84553009 746038.341707032
 1275366.97610658 -805363.230959810 -784110.414721515
 1636234.33263330 -346007.807388587 304984.927395139
 27263.0319733354 -1663739.93269523 348175.477945943
 799147.038516283 106944.375431610 1496638.53732095
 288146.359620007 382666.242410442 -1631115.63733452
 1331746.10284023 -623728.735668171 -852886.148247016
 -169628.587227233 1690186.26111993 -67056.2832010557
 -477784.653077380 -1532875.58492192 558582.372111770
 82510.1696549124 -1697794.94546784 -26160.9450782565
 -1402354.99519602 -771390.731378198 -573024.263877708
 536055.741017958 -1055882.09280686 1219736.54885450
 -1657232.60369746 349606.671987970 146134.431752489
 634398.963985971 579720.432112603 1466786.34268414
 1686476.46998995 47794.5911577131 208597.203304095
 261721.048878991 -273180.524781144 1657369.75158049
 318159.578490502 -1394146.83400907 -919309.027388085
 1415292.71745217 -745709.378304962 -575207.829427669
 207360.048637233 -11784.4425352514 1687264.92796576
 1254771.99561094 889464.162665988 724155.192181498
 -1101188.86955717 -715843.126517643 1079329.27866377
 758630.368938818 -59925.1764823696 -1520160.82588235
 1521274.15911340 591147.878764982 475677.535989949
 -1320361.36103291 135041.620312353 -1062266.27409267
 -93652.7814927929 -508915.700531315 -1619331.33307282
 935066.318649368 -1086415.78682745 -913975.775313329
 1317127.03128857 -753160.660206758 766762.938179647
 -585579.624422044 1549950.55074813 -380459.976472322
 -860170.692215551 -1466282.71955177 11016.6509099973
 1289792.67564509 -878964.627075292 -673688.383603789
 200230.774047488 1093921.07378748 1285785.48811533
 -1240142.60313627 15065.6615376143 1162677.66372663
 622152.561682429 282662.674611528 1556607.85118586
 -1015368.23343590 -1305592.25278168 -393009.185650540
 -950299.728346949 -764168.588264031 -1184473.21413963
 96210.3247528095 -944955.650427547 -1409894.46134667
 285682.694369433 -1599596.10039756 499677.609795284
 -801582.657520735 -591832.539675307 1377388.64818303
 1385876.55558906 -506506.907872401 -844273.015644901
 552909.446661334 -1073288.45032170 1196805.35017132
 -1536899.07605338 -344467.972677950 639752.331629526
 1343977.23871575 377200.723820369 -970280.781920051
 -1399926.74054024 890489.303998263 -370450.969205214
 -1023293.54940186 274482.639308528 1329484.70937832
 207852.926859927 -939215.063510373 1401667.65863773
 1377815.56419467 -841451.445001965 -532525.808545493
 -188603.953029099 -1596591.86835788 -552560.363033112
 -73061.6233942233 516415.152109974 -1618016.49863598
 759956.926232883 -375674.253210883 1473544.81633411
 1527265.69395825 -585744.919435676 462992.861082683
 -525594.869288531 -751113.527766674 -1431634.90519876
 871879.736027260 -184642.449957094 -1447664.63366999
 1136957.27968571 1117863.01117159 589669.765567174
 1391918.35060983 -885563.584450339 410293.118551939
 123089.666344149 1246124.97116479 -1149791.93347268
 1346950.41002369 -223615.608537560 -1012778.67895972
 -955925.767479040 817453.357051853 -1143667.75600008
 1205160.53692361 -1194401.60244377 -104846.994815019
 1220300.37447361 -624151.516895766 1005635.06304041
 212315.383345391 -414178.629047360 -1635046.86209153
 196584.430749020 -646484.208361275 1559939.97638582
 -370388.714961514 -769917.549131636 1469707.17061879
 892304.874976075 347024.613433262 1404765.43514048
 976053.807784230 465869.404264819 -1311596.22692346
 1614397.09847464 -164398.397637581 -506650.940284207
 -105793.555969778 -83885.4770718689 -1694630.03344438
 -302978.783619053 720352.182560874 -1509733.94667951
 1621851.86051523 448027.153905986 -242627.722872312
 -362662.907189937 1612638.17821417 397333.263035729
 621863.335224512 1573405.12346337 -166380.016115676
 1687862.14497116 -188395.995443564 75022.1865462902
 300029.340198522 1655982.17934740 -240219.517741316
 876885.769739690 1278931.64974205 -696710.256933337
 201784.390792674 -118980.534172116 1683783.44573183
 928160.830912439 -356170.411612180 1379006.92886292
 206729.095570930 -1005959.33206456 1354735.73189632
 1261535.67347448 977921.711350852 -584975.957642625
 1197744.23296440 -354456.572107730 1153156.23004437
 1551667.25638590 -480238.077281130 501697.233985965
 361821.374293140 143978.301169177 -1654797.73443677
 -1107906.33713448 -1252536.32832385 306098.504351568
 -1437059.97880689 150575.212553911 895648.213684301
 617630.777350381 -1217816.07173299 -1012648.13153355
 1658052.94041917 374442.606366794 25557.4119304337
 -705685.525015072 -1312992.57001764 817348.426842975
 1297314.37963711 446524.423622181 -1003788.49340668
 586145.579347561 1535563.23428055 -434141.582133243
 -789363.792089862 -1505009.29634067 43032.7975579364
 1235123.72420188 -158006.833784350 1157369.09687062
 993805.932400581 1080906.34542158 856732.887866917
 -1603157.48416707 548385.824880468 -138416.285274776
 392729.886145524 1457362.75402543 782212.912005131
 321617.983150000 281173.912639498 -1645449.21032693
 941346.983062969 -483442.284220523 1330469.62209059
 -805331.441218086 -946376.303717039 1160091.87633932
 -93340.0541163667 859943.693260233 -1463483.67900688
 -774678.287237434 1513229.87822809 2981.09387027624
 -451073.284314290 1637333.78073826 -75305.9269332606
 1244260.63410535 -542490.551321613 -1023483.98919696
 1106164.38617758 -1210431.76648608 448614.856456818
 -1561815.48080401 426802.564719213 518239.302513853
 363293.632313349 716783.833210625 1498078.32678016
 -732912.960408023 1530796.19204334 97476.2067971960
 -419044.911298301 1585647.66086339 -447350.933734861
 -173547.660258443 -1601862.53134737 -542141.716052367
 692497.006854731 -1106957.63134648 1088619.62957730
 876509.157006625 32935.0343531327 1456244.13516268
 1430969.68564534 437367.436465191 -806867.699368337
 1493668.57179442 811552.324666881 -18358.1578978820
 1447408.54183017 -555582.636407666 -697378.266910708
 -1443181.16677325 -790481.600994678 -427044.445415093
 1310004.26011686 -747444.818936237 784356.475794683
 1360046.34213296 245423.782009912 -989970.259388990
 -78014.1181314736 -1686668.59645953 197643.221713809
 1363525.31560493 -915498.934538779 -438930.990661231
 939833.615859330 1173985.54419926 -792761.449940616
 1319100.06638405 -879889.429170906 613000.495349638
 1599335.20350932 -296202.712983967 494359.039197958
 1611368.37561440 -525242.793644950 -132710.081733990
 -393767.333969839 1314895.15677351 1002994.52311160
 593804.630615448 1387482.31843473 782488.898765110
 535978.012126007 132983.082350872 1607806.91325977
 -91017.4219839997 1545019.34182558 703300.122479888
 354146.849654361 1624740.03998669 353270.167639367
 92793.4906310846 1614781.03403160 523327.412074260
 1222868.88090129 -40589.7685846494 -1180230.55832726
 309935.463933151 -1479637.35234037 777568.848241578
 -240978.516318341 1627734.59850138 427094.171716904
 307243.370005075 1627973.61992887 -381186.836608519
 762696.026160428 -888245.161665584 1232605.08860574