# OOMMF OVF 2.0
#
# Segment count: 1
#
# Begin: Segment
# Begin: Header
#
# Title: Oxs_TimeDriver::Magnetization
# Desc: Oxs vector field output
# Desc:  MIF source file: /home/martin/PhD/repos/ubermag/oommfc/docs/ipynb/thetaevolve/drive-0/thetaevolve.mif
# Desc:  Iteration: 1580, State id: 3169
# Desc:  Stage: 30, Stage iteration: 50
# Desc:  Stage simulation time: 1e-11 s
# Desc:  Total simulation time: 3.1e-10 s
# meshunit: m
# meshtype: rectangular
# xbase: 5.0000000000000003e-10
# ybase: 5.0000000000000003e-10
# zbase: 5.0000000000000003e-10
# xnodes: 100
# ynodes: 100
# znodes: 1
# xstepsize: 1.0000000000000001e-09
# ystepsize: 1.0000000000000001e-09
# zstepsize: 1.0000000000000001e-09
# xmin: 0
# ymin: 0
# zmin: 0
# xmax: 1.0000000000000001e-07
# ymax: 1.0000000000000001e-07
# zmax: 1.0000000000000001e-09
# valuedim: 3
# valuelabels: Magnetization_x Magnetization_y Magnetization_z
# valueunits: A/m A/m A/m
#
# End: Header
#
# Begin: Data Text
 276195.526502532 -1617947.43686339 -442676.092292302
 -1123478.08863581 -1108211.86107113 -632189.414128772
 1114505.16218357 16819.8883200754 1283586.90193655
 567205.932011992 322194.043333010 -1569862.55103150
 -428167.198190489 76660.8608366500 -1643409.85843748
 588789.344753852 -1077609.83705021 -1175620.74947533
 -563720.608030115 -473887.070060923 -1532204.33392914
 -298348.154373430 1595521.46623116 -505271.837308928
 839891.518111114 -947831.796969185 -1134106.31003411
 -1196386.45030907 -55127.2241480005 -1206490.96584872
 -364305.283576180 -1069187.73711937 -1270479.92630818
 -38559.6660737232 -1469480.20053197 -853897.588939572
 -1159963.46009989 -1233619.77280749 -150555.728457873
 -77928.1820854923 1227777.50786692 1173238.93117000
 -1509378.23684240 477840.116801135 619230.297160915
 344674.085613732 959249.303011936 -1360529.51066026
 62368.3488289091 486014.667390380 -1627851.32372271
 1434686.13877344 172073.888563172 -895581.520625629
 -1004974.98468315 1364952.31749061 -130117.067051603
 1358830.91602427 -777702.767043197 662387.309502535
 95683.7281729477 1583473.20927839 611111.462550423
 -1143785.18377152 477638.364130814 -1163450.49163907
 928416.028941879 427530.345525238 1358404.01974481
 1461571.07310952 299286.224997378 815007.824365086
 -48926.8787171904 -1277520.26080705 1120512.44694849
 1153655.44517334 -360466.628778921 1195467.65885099
 -436424.142908807 490825.524432910 -1568000.08675111
 -286932.940940389 -1341474.62448100 -1004049.46057296
 790891.280552958 1273167.48630801 -802206.665488045
 -110362.916796944 -1626354.97617941 -482482.660882778
 1178727.33003302 846329.026263081 -885623.543464051
 27221.5365891954 -1496704.97399622 -805688.034390913
 -1600389.71670094 -232996.649694925 -523894.374763502
 -599199.591290333 -1114665.25836496 1135112.86293111
 -870545.686225549 -1329356.04113499 604121.448131072
 1375853.17713294 -648613.490222868 759163.075547085
 572974.211554016 -467262.026836026 -1530805.91557883
 -1264198.98627737 918531.263746173 669403.645505547
 1340086.24723507 503445.218277086 -916903.354866454
 1137387.49545991 976100.307972646 -802233.054633843
 1308513.16072114 -1073279.47357120 160824.375734225
 627375.043481900 1293619.58912550 -907165.317594793
 1519792.79058605 -449832.154271272 -614720.185666882
 398490.945733493 -527710.020896365 1566118.48211238
 1152581.17760713 -1245839.48788727 97162.7472158519
 -964255.821661588 1394473.60352055 125116.263835507
 1277828.40213670 893720.923866219 -677065.347611646
 797701.189492244 -1232503.54984951 857092.650704124
 -616786.998968337 502467.534925231 -1502364.86056144
 -940987.763009097 1052918.82874070 946522.038808634
 -41325.5174174539 -935348.464829290 1418948.71329152
 -513130.846948481 -886717.408718034 1356624.10821359
 315972.023067015 1631333.47498420 359044.250803322
 148622.401387853 252547.734682719 1674553.97748545
 -1529893.94088165 -456308.598422552 584129.260232077
 36282.7369385079 1590060.54449419 -600325.768098530
 1634385.73494146 -418336.309928281 209231.931634345
 -1119327.42989641 -571518.486571952 1144758.80611944
 411472.693006597 -232934.746176540 -1632921.19434269
 -512386.641904035 692033.238682836 -1465793.27524602
 -997575.347038374 491469.058864278 1285807.75824395
 361546.663741714 -503303.426355155 1583025.48019809
 -518381.088269823 1580870.24171679 349471.495516414
 -166888.395238136 -1615708.30413744 -501632.275153980
 -995772.003142898 -869823.216654392 1068571.79895681
 1605499.65155181 -115382.234373523 -546861.782224710
 -275449.150902821 1494433.52289641 -762099.869380866
 -779273.099683915 184349.587309157 -1499582.83057921
 240399.485593108 706219.083810262 -1527567.57395173
 237936.935412328 -573046.187186111 1582720.46872404
 -1547048.16274582 631931.579925267 -311936.628881472
 -1207045.98801384 -1172686.38848714 240513.236801385
 313542.987412910 706477.870527671 -1514126.74948264
 -158071.728710077 356130.734613405 -1654745.97097147
 747217.053495231 1046498.60357629 -1111983.51951761
 -612552.402909557 -1180931.18540916 -1058386.07748677
 -77500.9454777479 314710.133441355 1668817.28639159
 894636.388412330 544174.514865654 -1339216.12516400
 399940.436128955 1449458.30342470 793169.763784628
 1667014.29443136 -280990.788333823 -179185.711018032
 237425.909755716 -1574251.66764381 -596121.316761403
 -1260043.39054807 -1140469.30717800 -40254.3577896646
 1471478.31789050 -801568.088794224 -286775.450492075
 -805430.847294286 1320202.94441619 -705935.787293462
 976139.813166003 -1075652.92798150 -883245.064337786
 -765838.654828839 -1517539.10194853 -23795.5631831434
 741158.935479109 167253.977125080 -1520759.52717559
 117350.578349881 934486.279129586 1415261.18998561
 1202083.33005995 266497.829171078 -1172166.61556243
 -692736.114366595 -1119214.43069848 1075860.46212719
 -1618511.95865909 509103.980790505 -105981.962714371
 -1437617.57103076 586563.667772411 692241.853049208
 -46001.8946993950 930711.731487300 -1421850.73005431
 -1511530.92127543 708693.361214151 -320979.740480959
 207391.494032190 64971.8291686912 1686050.83838465
 1481879.80926281 831377.200050269 -53330.8741330461
 1657631.54422471 -371718.180933509 -63900.3721013579
 928729.208479791 272964.531600374 1397480.74112121
 -906638.343333908 -1335929.97346306 -532257.475663541
 1578507.31328374 -602408.639671151 -188198.014759159
 1541416.80988606 -130803.140976452 704928.901742145
 -376858.905139681 -1629780.38915013 302974.006737476
 1647429.56667583 415669.572397901 -56521.0529345617
 -1383967.58564112 -972948.109720826 167349.029532197
 -1093406.33315870 -668358.825672770 -1117031.36516114
 441658.249730117 1503975.35763418 -658024.402339664
 514898.542758711 -1495051.47246303 -624260.030236667
 -518564.545365733 -505549.103282402 -1538021.75422196
 -761897.353944339 1513616.91009991 -135927.449443462
 996302.426382525 -422254.728681724 1311137.83382611
 2444.34592934562 -569053.968925142 -1601927.46578100
 538044.818535699 231903.361927017 1595847.29970440
 1540124.92099290 -413301.114077609 589234.602547076
 21036.5724608867 1265883.50492360 1134502.71686824
 126281.090859252 1673176.13237826 -273010.468903914
 -1370842.50158508 -883320.298998959 480141.734516315
 490332.162677467 915868.907327719 -1345644.27499781
 -783024.710189268 362211.192907781 1464812.39582594
 1504250.47430829 784449.241117204 108949.064493127
 -1546547.53828955 168056.028798749 685527.448753831
 -490955.121323398 597533.383352527 -1513907.83227567
 -1112275.54808944 -1085854.58690403 -688304.381231023
 -65805.6500906768 1661133.62124405 -355393.737689324
 -933797.019919165 1398111.08595120 251611.837818579
 -1694328.88756358 138377.266210767 -10067.4209005271
 -37833.7141701362 1259569.45775130 1141075.54139601
 -239386.240465635 1667089.76760759 -231313.498555101
 -1006501.82452966 1090263.94649826 -829625.580719700
 -290486.617852660 591254.387174119 -1567174.45566723
 792662.036899139 -1460656.95970796 358005.783913606
 -438947.477323639 1185908.03581019 1136198.59300742
 -1644102.09339461 158304.142144234 402328.354799194
 -1608786.19210313 -544572.958815289 72438.1158331891
 -481521.963979451 -1265162.64837292 -1028348.22476016
 1304990.47663274 506105.513373406 -964809.341388702
 220433.604232464 -1127742.89561754 1252838.77155412
 -748534.748196012 -1518581.99551935 153637.409596786
 -770426.327320212 -1200955.51619424 924201.883948803
 -688113.287707470 -495287.665453523 -1473495.92185727
 -955568.787375691 1401278.18721718 -115359.154914884
 119114.067520354 60370.7345933976 -1694746.94669246
 -934099.045762022 802131.395680770 -1172196.31323840
 652900.019939824 551498.213813651 -1469547.98632877
 -1330550.93166647 1051978.64363996 -113908.522801906
 -506167.979194043 1156642.29922586 1138407.90952985
 211614.986115347 -924206.952487395 1411049.46994263
 766766.285915482 87980.2283514762 1514704.24248518
 -1042791.53986547 1159540.81816173 -676794.574004421
 -722726.130694091 -595419.943618715 -1418852.36397345
 -65126.2516989343 1685728.53970136 209947.283326014
 307735.804212029 1604976.46690596 -468347.323558103
 998812.763813184 870099.184519340 -1065504.79677130
 -40418.6337726769 -121556.194326614 -1695166.78402592
 -220988.015592336 105299.353766561 -1682283.07459265
 1373750.14500630 -775918.629523002 -633056.726884969
 1057513.88454668 879064.643796720 999454.719343267
 -1255870.30144320 648051.774643739 -944890.831437193
 -786029.852815208 951009.272476263 -1169503.49898898
 178083.293987195 1683357.23141302 -156827.203801441
 1498978.61021470 -580151.930861251 -553612.556971732
 -1389760.48389337 959770.924698581 193405.195151793
 764471.380876239 495621.667482857 1435250.03763898
 -19706.8261932184 1074259.61834091 1317413.34189518
 1598997.20562731 451983.797180286 -359052.340867640
 -994244.743290744 -1108586.52976981 820069.080292411
 1680251.19523358 -150654.084236273 -209902.996212705
 590422.850640756 -147546.219118477 -1587334.54906806
 -800736.210964537 1027659.32467314 1092125.37415010
 -644929.406405708 -1546635.24677880 286331.056950965
 -721894.672713771 -819152.132994705 -1303018.75063934
 -753385.141222794 1146934.03933864 -1003470.54684782
 33035.1266867544 -175115.086645768 1690634.01918743
 -1156993.91772177 -925626.455625305 -833415.106055419
 1411336.00961494 -914728.492332010 -247795.184134360
 -645436.379857612 1448504.49257407 612573.762537240
 -1442891.74848489 532380.212741065 724316.720251577
 1550086.20305008 535595.705588856 447627.080579976
 -764359.244140013 431936.399867863 -1455742.38530274
 -533713.478973380 -1488979.43457212 622968.832112350
 -683474.509152401 -185593.834140200 1545450.58933245
 574886.320837262 1402184.61699923 770314.233261289
 -1401742.50159039 937744.550972507 213899.781104335
 1041331.75403304 -1273679.16485788 -428216.724392458
 395481.875318109 -1577280.74193405 -495761.583242231
 -102672.059433121 -931109.092641347 -1418624.08897226
 -587746.681741861 1563977.57059622 313891.695929287
 -535648.109972636 -223900.784641847 -1597795.21244730
 1645813.52540461 -316667.282485414 284639.547144393
 -452212.600976387 -322100.206241486 1606784.12385030
 1248841.21643276 -18771.2296716705 1153275.01363524
 1566101.89945610 521751.625422228 -406325.093846355
 -759082.973656073 858251.007536015 -1255865.53705756
 940047.364101376 -18964.7088668510 -1416316.09927433
 -1368755.05403481 1007959.70588235 22952.8510588789
 -447713.578225297 452505.780831294 -1576322.00713781
 -1079289.50472779 1262835.17849074 -361083.753374067
 1422246.44027668 -28048.9322238286 -930821.315033893
 1052807.95552563 -1301815.19896333 -294741.575842330
 1031229.72910727 735059.489708584 -1134130.85329459
 -363464.401576658 -234748.400926231 -1644015.45523426
 -21419.2927663356 752030.846779627 1524464.10892133
 -49793.2288441063 1637544.89913083 -453836.245458514
 -74782.4696659368 1022948.21702856 -1355722.88005652
 1641234.12410824 388991.173689276 212217.851875172
 -1054480.95216844 969463.926129965 915537.884222501
 1198431.23486692 1197633.46263382 -139415.438438758
 1400269.78689442 -795223.076649062 544852.991434800
 -31143.2176686838 1611672.84747572 539945.120084197
 1682560.06003774 132760.707462381 -203386.919244781
 -1613931.24561768 -363258.000679548 391496.563664698
 -1441370.81869227 237086.067771734 869620.813625637
 1010762.99727439 998683.529431757 -933268.113342900
 -1350459.52256661 97450.5919223380 1027989.52331391
 960618.264372624 -518968.818322034 -1303028.74709776
 1518048.49416396 325268.656842934 -692624.768718332
 988836.190652171 47654.9383557587 -1382002.89251029
 140917.310051961 202466.808080657 -1682007.58124134
 -1683685.47524604 -233038.270671435 -29939.6868384248
 -1071143.20700944 -1309738.11612976 165040.289730713
 1311053.56254692 764453.984973515 765995.209509270
 1528229.38880929 525333.403818973 527768.651978836
 -759539.457282493 -1327751.55036638 -741738.251225245
 -460300.433082864 1300451.65571110 993453.070085338
 1153754.99530785 881295.050144330 -884402.875048062
 630065.026785086 -1528890.47915489 -394350.053596840
 1203325.27981236 918872.686200747 773098.478538617
 -42460.2596869360 -430861.182340657 -1643945.18397036
 558186.381070751 -1283900.92229922 -964378.756353717
 -910475.532749909 1335234.94897529 -527429.554821044
 270834.776599063 496384.620180419 -1603200.18482811
 1460340.82437483 304755.186341924 -815186.452943093
 92110.2611417470 -1578933.11888309 623286.375502084
 -1363062.85724586 -820023.784022514 599683.784034667
 -1489871.72107448 -474770.190778003 666989.895494060
 1131698.10969217 -764768.634123318 1012120.70662561
 395411.027990255 -489234.081098132 1579335.34527527
 1385354.11472443 833626.024824523 525225.311224948
 338850.906402576 474647.532351045 -1596837.43169529
 -196964.761403801 -1676883.22327488 198160.385204510
 -244275.674601243 -1486184.53132378 788406.578899499
 -430174.341569212 1512081.94974361 646960.750830422
 -2494.49138749065 -1696967.95465921 -101457.076502576
 473487.011184337 480213.852282569 1560514.24418865
 1123139.24515203 963826.147804747 -836419.388110534
 1405869.87715496 746624.259521902 596726.154615059
 316091.214066606 -575202.094699697 -1568192.87545983
 1039537.93788337 476646.943591855 1257842.82279851
 1256774.45042169 1074704.35387738 394371.059440553
 419883.739762444 -375656.795936369 -1603926.31275565
 -917219.185466479 253572.787210774 -1408690.81327251
 772438.375779132 1328101.60156243 -727657.262418920
 -640937.815236644 1574350.51204062 24883.3727036532
 1581334.16033713 -404426.220187039 -475207.013601522
 715760.299953685 -1260015.73784880 -888846.180946711
 -1517717.83271775 -734469.578521589 216995.434230402
 1465087.87952498 -550230.707973931 663900.348901479
 169363.751584686 -1676206.30223468 -227262.737812205
 1525576.02076500 235922.083618727 712010.235409456
 1252480.38097981 -299909.148468946 -1109660.93827137
 -854653.075972632 -1134506.59216732 -934057.231683058
 -878469.012633978 726587.326255129 1261095.97222706
 -658765.761035506 1261643.44749798 -929668.480412625
 764189.515152567 -1327165.26418152 738001.860757066
 619103.814923350 -447206.949137264 -1518787.80973206
 458587.995202500 -382383.362513334 1591690.92939840
 -630527.096351337 1386692.40868265 -754665.319508372
 -380192.523302230 293537.060422442 -1630732.85346915
 698040.862793627 -1139105.45838212 1051274.32602266
 533084.794270622 1096202.57991289 -1184972.78699124
 -943916.507858905 427304.649224643 -1347750.85343785
 1185618.08776282 -1192642.82867964 248822.895185855
 -1235942.23509356 -570552.486220881 -1018291.04482908
 -420469.451145483 -517773.386783536 -1563686.72073153
 -470994.345048346 1633362.57837320 17059.1471803190
 1205240.15984799 -994966.524051001 -668907.895832805
 -495919.549839988 -771425.224792768 -1431421.29460195
 407446.839586982 -248003.143178127 -1631711.22257719
 -1229967.17209933 657656.291833210 971940.819890888
 -902244.525491383 -1424232.02193689 217986.155318137
 -1378943.31321115 -558403.487799233 822618.309888564
 -1220726.18185050 -826676.585459689 846423.896163982
 122025.349076820 -597154.966106572 1586983.22632501
 1238180.92019458 -958378.214508758 662132.318212233
 -414542.805865156 -524879.315793022 1562899.85794295
 1471400.80999309 -838003.799568278 150762.356909157
 731074.216334342 1183705.78157890 976919.194646009
 1555503.00257534 -516154.524608961 451657.963180985
 -93262.7970946917 140742.377230555 1691594.99701600
 -356264.164358933 609488.839755135 1546479.61493437
 1439849.27884956 803296.890891498 414183.726479516
 542120.934638354 -205204.626598980 -1598122.63404571
 -718849.570845718 -1306379.85390358 816472.272529690
 -1079243.58691103 -905756.422713466 951230.036754892
 -1326137.83849348 -553469.413435243 908311.643494397
 -1195182.48771651 708415.348761971 979635.909251102
 584931.701838522 380646.306508897 1550149.44232014
 -663182.584308570 -741675.694958351 1378443.33339382
 382007.929732100 754355.001458377 -1474794.38342995
 -455375.568152109 -1578628.23157337 436538.656260444
 -132980.223628115 1521619.89901204 -746317.052635413
 1281426.32727107 952354.039816364 -583924.952902364
 -1615818.96904011 507548.835156593 -146708.006670850
 -850193.416958207 -18895.1660631910 -1472010.23313711
 -448658.553751999 -186265.877319572 1629113.41689016
 -1674224.90080309 -200590.377425523 -216181.594996357
 902039.027649282 -428505.918097959 -1375757.34442981
 573439.276755479 -135238.581340367 -1594640.37387469
 -658662.007661518 499992.924100723 -1485318.63097199
 -1366802.47724042 -790695.604342997 -629802.706791668
 1621617.58502465 384095.814415722 335897.027803397
 -521296.748727139 350272.066682421 1579733.89501794
 523727.018695559 555761.265919533 1518828.30668637
 1257834.69202307 -1132923.16670851 -156003.159834617
 -167859.253561531 1437725.65561896 891497.734247709
 45241.4439943411 130915.294254274 1694347.77937578
 10039.4518261611 -111919.262399293 -1696282.19589520
 -507263.841459066 980794.388728905 1292565.57365036
 -432287.784018930 1286469.57199275 1023778.93713672
 316891.291568816 -920322.916690704 1393766.70872200
 -1400177.61962755 -779204.651202661 -567752.362424216
 176740.587375095 1434345.48094840 -895218.300783232
 559313.947241243 949479.102929914 1294471.83882880
 1190541.15860675 1146202.01540679 -398538.190818281
 1135873.65798735 -1020886.07534547 -746714.573485863
 -1101684.56501029 108707.372255180 -1290144.88583083
 -1253035.05397518 1099442.83579569 333359.572124385
 258317.746671856 885926.081707800 -1427727.88706540
 140888.373978360 -1603454.27658094 -546886.504671686
 1368395.68620002 306287.872866154 -961083.235169725
 -360196.514646811 -1319855.40496677 -1009078.87740071
 1465694.93662996 -611834.162552480 606133.079670619
 -1278741.95125267 550380.942259865 975653.545324190
 674498.915707403 -175038.946746027 1550616.83849737
 -1352420.55324509 314290.246527396 980907.889711359
 -495607.117428261 -649270.870631714 -1490912.78138716
 1287291.44483190 -1104089.32874944 117760.308271571
 1466860.44690813 -847445.094381995 141976.199781433
 -1561631.82274579 -663785.453783358 -103416.253719008
 -1598763.76039811 577885.626196559 1625.26093795907
 855617.291851178 -1371066.58242153 -527347.585992574
 -1284164.93264045 -298103.014152745 1073338.25923126
 366298.690270929 158124.966388290 -1652519.82272846
 1537757.31435508 516791.397874040 508162.467357489
 1391280.69525490 -810810.581563813 -544907.540629776
 -33166.4076410011 -976318.716290189 1391294.99159081
 -1203011.91181014 775303.741460776 -917423.810743886
 -1137626.73769431 -1240027.05979320 -241118.843443704
 -679943.741331955 -1249354.81289155 931015.069764299
 -1689101.45231587 189175.156322286 -33897.5517529731
 -458130.373162151 -1419194.70624673 816090.036054575
 -1309745.53525213 152712.128635297 -1072961.15430839
 1561010.77204160 -404032.410756832 -538519.433844422
 -1647704.56002983 -413329.103690895 -65028.7236457440
 1323444.66006271 -10254.3639952812 -1066953.17599722
 1179473.47925030 1222755.34264808 60923.5896084257
 -972556.500786996 -1225988.32894211 664143.410774127
 -766179.123576537 -1464388.95166924 -398163.972283458
 -48427.7714544076 -506729.333002252 -1621998.80826931
 -578246.397128385 889347.096783094 1328417.42146493
 -1695523.62223731 -122871.280016032 10114.0982041529
 958585.733115471 -270064.136258046 1377744.08166926
 -1186235.59423397 -874159.061071438 -847756.480906566
 1563557.77278104 561023.312347494 -361303.105686404
 -715450.615756257 1145473.74674308 1032482.59643268
 -886241.394014570 156438.613590429 1442256.27116439
 -718765.545734214 -945861.261371562 1216027.36996418
 119916.051182134 -371496.239746478 -1654572.65918518
 572024.865307394 930112.540442000 1302949.81314807
 -1067063.90710734 -184304.030326574 -1310498.62363689
 530390.281339298 1560526.54565142 416464.944236679
 -497911.450890650 -564041.606799557 1524447.85180436
 -1046122.62856876 1212191.37218785 571156.303641763
 -341428.141369050 1494202.24620984 735381.854346950
 623638.507186069 -550556.051281486 1482552.88160391
 -365561.565873999 1596198.17681325 456635.655521795
 -1691921.35005817 -147527.221293342 -75085.7123212534
 942624.086274554 -935135.881636682 -1061593.47909200
 -1641151.53599720 -306389.919006257 320541.500316864
 -136786.702726036 1646857.27933438 -398936.711096760
 256879.529891850 1672826.78575434 160198.164737728
 -288678.626472214 -1647452.42354595 -304245.234589940
 767629.592053037 -560479.862590753 -1409470.51513493
 -153140.799729233 -57273.5517089971 -1692119.27349491
 -1101643.07649268 1289664.48706688 -114664.915358906
 842838.634623642 674048.346022041 1313499.85276387
 159560.942638102 1660063.46469460 -329741.715241782
 -1482305.00542983 -803114.941454852 218582.391078597
 -1526305.81667081 702811.750369222 257771.599560183
 -588425.565536119 -697937.376511173 1434098.59224957
 1018666.02941502 -866782.315342167 -1049289.25388851
 -961358.493379131 -1378634.47932911 255258.338968127
 -178992.316743085 -1454065.17225175 -862355.046017260
 1201899.50856656 524455.360375298 1081842.93974730
 1678232.17950529 62163.9549756555 263955.288590160
 -996397.388192733 -659074.446666757 1209468.11390529
 277218.262345605 779721.968721088 -1484986.08967081
 147664.924429379 829770.694764960 1476372.46797769
 919563.437991854 703236.389905882 -1244934.40125203
 -529843.726421296 894408.879495892 -1345101.62510157
 335242.000267762 -37034.2717545250 1666205.64876371
 -1639762.33938446 438604.128848591 -93839.6957229389
 836122.737581544 -1283087.58671058 737960.034506178
 1687844.81435361 -171692.731493872 -108173.419155512
 1157191.11180515 4134.64794310097 1245347.99772816
 -762254.104699317 -1517543.12832353 77662.9483542804
 -68974.7195163044 -1357276.72599687 1021294.46152169
 -161578.291612784 1387029.76463880 -969557.057467754
 619496.649408648 -899510.298345878 -1302729.87397279
 -706955.350650647 1542502.80927494 -104399.308260786
 899727.651290354 499359.382973779 -1353192.65448035
 1121300.78424346 1177971.38183129 495043.407027597
 1047900.86829302 1333579.83273081 116054.297483580
 -423402.069579228 -797460.552252281 -1440412.21706757
 407136.817434873 -691377.161776998 1498745.21919577
 -610080.637220184 945195.458931649 1274522.32640468
 1171112.75202798 -1197451.97154714 290867.148154150
 122923.233678394 -1548983.22173404 689594.705177243
 636055.419118796 -807486.352083510 1354030.75851639
 104319.838481937 1472721.60394470 -842738.659712276
 833510.612489205 1078495.89551193 1015926.50434555
 837530.540791023 253040.862193172 -1457570.89546369
 -1555104.16280894 -685073.477116371 -48222.1294220297
 -1266504.88321611 581224.698763742 973726.465870544
 -1651705.83632836 -385328.386189338 115714.584368371
 1666775.96384614 -174617.707100120 -285248.212460421
 590252.792713623 460062.260120832 -1526415.52583374
 753291.652791489 1517507.58574509 -140436.508931160
 1230585.26063348 1172714.16203481 20035.2308356150
 -768446.364326869 1509572.28229603 -143811.368383616
 -631418.440179911 67769.9734047664 1576933.09436561
 -1398963.82619861 -928447.050692263 266244.787833660
 -1460980.30042944 337009.531188997 -801224.773484241
 1417580.55056304 365675.671437225 864145.060730148
 1361115.62914489 -665126.749397803 -771343.406877257
 20654.2737666149 -69833.5052553739 1698439.48450303
 1053902.92352741 -141842.748933393 -1326336.78315705
 -837920.777046351 813453.572287548 -1235387.41175660
 -1216862.19143134 -1082903.63121050 -486380.645766298
 -1241443.15315180 -772096.752246175 -867574.494013870
 -274734.032795595 1552963.92052647 634684.388311951
 -1103849.39233971 954791.449784947 871716.586081057
 -531727.327276109 1133674.19942633 -1149803.83500095
 -1019124.46886511 -1135648.96922833 749457.627655518
 243434.892220525 1574130.72463660 594013.396317489
 -1041750.98404874 1006521.33373063 889758.221079521
 315596.095101433 1658417.09244806 -200129.588599133
 1530793.56412620 498754.425963919 545815.982370629
 751013.205983946 -720308.788958198 -1344296.99582618
 1537983.43281527 -112992.516974996 -715429.697100572
 1340036.15943683 -663937.001837695 -808387.746686310
 1637017.60490596 105095.750184167 -446237.878850712
 990449.175365495 570940.171940564 -1258188.28125296
 -661932.986269277 -249543.665059565 -1545824.27232764
 1598071.69838960 448152.322456132 367867.289499033
 939158.087207011 -1126420.39000358 -859743.678207548
 -413992.809750528 -1646040.09552722 -95718.1142292565
 -1338163.15818566 772645.053370532 708758.762610113
 -457591.115485170 -1532060.10768862 577409.904191268
 1438609.46647637 410366.446746357 -807466.520884510
 226033.743710477 1679676.04029859 132654.236084170
 -1660134.14302502 349265.325850034 109399.996898731
 -1003687.97649106 -954299.271100020 -985861.728147137
 1204639.34076726 -826623.996418157 869216.214311202
 1571295.66267302 -600107.469539636 -246781.209713532
 95880.5426580512 -1155217.44515736 -1243494.90386720
 -207423.881650664 -657199.889732844 -1554047.50193040
 -41378.9291404543 1652391.85658791 397352.408455182
 -1608204.99262446 -466982.829394683 -292581.166086074
 1361658.94940733 1015656.51769731 65777.9868792894
 -500086.405382977 1596250.36873803 303147.402190456
 -760784.604893544 -779806.413784799 -1305032.08465427
 1404023.09765163 -80132.6270963116 955142.870640495
 619372.776589088 1436422.20171118 665634.000071760
 610098.554745313 924003.031938371 -1289960.52283253
 64368.0048510600 -1690936.61926634 163064.740442578
 -141137.373153997 -1421674.40323839 -921369.704882869
 -1291655.80549195 -1004450.95648156 461197.957673518
 -622441.435461935 -866274.468906990 1323682.44074627
 829025.773763092 1386220.94241563 -530195.968718020
 39838.7818193903 1685189.79708505 -220336.604456923
 -1178896.59145583 758030.232175370 -962077.436468591
 137557.917698979 -1169389.52761599 1226216.11145033
 164983.133475483 -1531205.92694668 -719853.439911179
 -1206147.07847821 382824.115418483 1135189.37703474
 1632197.47973885 327616.455673939 344381.830394415
 1029296.34093126 1328834.94096628 -254453.811550675
 -1447827.88048551 56036.1976452347 889187.479130411
 146876.192674314 1093158.53504734 1293611.92066193
 1446461.45715938 103176.366953390 -887188.756835127
 -248418.024900693 1622828.58362596 -441266.215646532
 247573.278049373 1232569.18355821 1144325.42562792
 154545.562836500 -700460.703249865 1541256.13452478
 244328.580596261 74653.2585468403 1680693.43893887
 -1538216.69573265 79203.1413424475 -719455.529807658
 -1029399.95366297 -1308562.09255942 -343512.714925090
 -444732.591533622 -1133134.18534178 1186684.38939661
 1297003.19661423 -1094059.35119276 -104004.057806113
 -510766.926692274 1614899.21846778 145662.832560225
 413359.864333376 -1023969.66148805 1292524.56646299
 513698.344107785 1042805.05923171 1240432.02945654
 -655284.290150112 -670650.158161293 -1418037.68089593
 -340279.647906765 -1474683.84409144 774285.038726783
 -1666324.51565819 272061.029934447 198356.760680125
 1682896.41608650 229973.627720577 -70510.8734611444
 896074.196692259 460257.933745002 1369384.41222584
 1193244.22560169 -599219.728080337 1052190.06626538
 -1467146.35859022 767773.337933295 -384715.042640952
 196734.947491831 373658.465722978 1646716.34212725
 -318836.290091295 895918.360244880 -1409139.35148265
 -1240888.22169907 817442.155377897 825823.676010595
 72475.5079483923 1630403.99914227 -475951.783617314
 -529988.184505563 -1601030.22859492 214043.760501910
 -659209.285383853 1471675.12802084 538159.303207290
 -629804.896302956 410948.054257914 1524620.44105884
 -400472.992070490 406072.586955148 -1601476.33037322
 540587.209382794 1598805.24664233 -203929.527927378
 584229.670179606 -1546840.72617349 -394917.029682047
 1282493.75466362 1095315.35123062 213293.344029668
 -1536340.56121611 -614546.681563611 389859.020854114
 408269.243358613 -579412.266642574 1545185.31257306
 690591.503320720 1289949.54957668 865513.451708370
 1078442.95625732 1313749.99281229 31964.7694293710
 946864.943107129 1334650.99851550 -460601.228478948
 -1323797.21076114 983620.759404806 412372.582077098
 448319.258381334 1159580.25058897 -1159475.52152188
 1048614.72503475 -62637.2918883066 -1336594.07753633
 251453.931380372 1502232.57842283 755028.609205276
 1116905.99647037 1145576.52703125 -574608.924194130
 1410801.51964461 609507.502379497 -726732.190501823
 979852.286295831 1072380.93086919 -883113.037016763
 -1500137.11226684 537172.958202493 592481.102969266
 -1191935.55828918 -1180397.58621234 -275592.386233629
 -1271171.46839680 -440816.861972496 1039135.98346639
 475632.169040242 -1060874.25484418 1240290.23022149
 -491393.378248701 1149575.39991420 1151958.74393376
 146613.163632580 1690045.64595647 -110681.050018547
 -20485.3005460767 253551.125114560 -1680860.54728365
 -1544031.77082799 -93503.6107221900 705140.387054741
 -1211111.46431565 987809.550590571 -668910.541675977
 -1017537.74233695 -9675.26619466488 -1361808.84566957
 -575709.409075177 -604730.869744422 -1480830.59513250
 -281077.549225897 1517279.17682505 -713343.753665974