# OOMMF OVF 2.0
#
# Segment count: 1
#
# Begin: Segment
# Begin: Header
#
# Title: Oxs_TimeDriver::Magnetization
# Desc: Oxs vector field output
# Desc:  MIF source file: /home/martin/PhD/repos/ubermag/oommfc/docs/ipynb/thetaevolve/drive-0/thetaevolve.mif
# Desc:  Iteration: 713, State id: 1435
# Desc:  Stage: 13, Stage iteration: 50
# Desc:  Stage simulation time: 1e-11 s
# Desc:  Total simulation time: 1.4e-10 s
# meshunit: m
# meshtype: rectangular
# xbase: 5.0000000000000003e-10
# ybase: 5.0000000000000003e-10
# zbase: 5.0000000000000003e-10
# xnodes: 100
# ynodes: 100
# znodes: 1
# xstepsize: 1.0000000000000001e-09
# ystepsize: 1.0000000000000001e-09
# zstepsize: 1.0000000000000001e-09
# xmin: 0
# ymin: 0
# zmin: 0
# xmax: 1.0000000000000001e-07
# ymax: 1.0000000000000001e-07
# zmax: 1.0000000000000001e-09
# valuedim: 3
# valuelabels: Magnetization_x Magnetization_y Magnetization_z
# valueunits: A/m A/m A/m
#
# End: Header
#
# Begin: Data Text
 -409539.245317337 1615591.08400852 -334877.672915166
 -1049053.83630418 -837835.992904673 -1042840.78244424
 1314246.86713086 -71683.4673725012 1075925.95132851
 230222.376362551 1405859.66446086 927661.717041278
 1332522.81780845 851719.331257805 -623664.269284040
 -406135.063598928 1178398.25499711 -1156041.46237722
 -155247.884906529 -1214934.51469106 1178911.45521810
 1173639.57220034 317318.911637494 1188225.08931709
 777772.562990649 -1045245.50609759 -1092030.98501909
 -387061.776412582 1646065.89338170 -175072.144802747
 -1228991.50728443 -596931.752585866 1011559.36937854
 906263.073203315 -833930.416437438 1171856.34899870
 1343159.28006733 -11083.8798792564 -1042017.41634957
 150824.237026037 -697141.639908501 -1543128.50515801
 352498.920389678 626763.097098019 -1540426.08756156
 608573.299387979 1281346.72974874 -936903.995847085
 -156476.845872291 1645532.40423597 -397162.565349827
 1223391.12937281 -266590.258916403 -1149888.59391804
 605653.454208900 -1422014.96801076 -707854.027436571
 -39665.2884937065 1502747.48942225 -793836.663252482
 -451499.649832334 1629478.61559302 -175919.036850334
 1543049.76452600 647376.906319008 -299834.229802201
 338417.940705884 -1519959.84973298 -682052.309290204
 -1577785.24712116 632903.027113863 -5241.39646687339
 1439090.04177705 790992.908907752 439715.896592087
 -1622643.91961997 -500574.431054105 80324.0256411359
 -886423.135970294 1093392.87084381 953281.728559047
 1607624.15016505 390216.307377255 -391504.566081865
 -344704.130629252 -1289803.91294698 1052418.60895453
 -1001895.05260070 -558962.688551802 1254498.71119152
 1354281.18252970 275823.926673548 -989870.516845679
 1046812.31344758 -19248.2303116213 1339333.22442341
 1178073.87167026 960883.139739563 -760818.995985302
 854565.053098296 640852.986759153 -1322507.47422651
 225663.861106336 -844622.399354085 1457974.21935367
 -437308.623385019 -952081.635159834 1338768.73578093
 -356647.466046995 457883.063217453 1597856.59099334
 1463199.49855391 -741928.583636073 445633.486416101
 -407381.819044212 1144319.74319095 -1189357.96918154
 80589.3439807275 1469559.94419280 -850822.500913555
 471209.151247440 -624053.116845400 -1509476.61231839
 809358.258637775 1304888.67234433 729523.654148563
 1604124.18012206 -561588.506798785 37469.5046570718
 1181983.83078610 -1218817.75974030 86008.6757359413
 1612407.40860362 -344902.201229938 413744.873402559
 -173573.046891951 -1683470.87029618 -160618.262526029
 1598874.39738345 569976.794675820 93419.0286975067
 559867.251272930 1560902.62281665 374341.639463465
 -368327.688302719 -1360362.70801300 -950656.623958993
 1112201.16373494 -86214.7277494947 -1282799.90337766
 273792.130078673 -1605259.40705337 -488036.992013578
 -1688721.76836056 188813.325291276 50678.5680306331
 149884.485858276 785604.789035202 1500119.91398820
 -295588.437487932 -256826.456604668 -1654287.65540076
 903473.427543065 870213.195233357 1147372.98232324
 1551549.19568141 -691418.347018165 -68086.4361457787
 -274320.059397210 1179420.76210808 -1193195.36159034
 -591236.026911807 -1584370.87184782 173807.079607587
 -1299235.30329851 104559.728484496 -1091354.61232455
 992868.768087932 147747.351534224 1371999.39120620
 -300773.853197579 1339767.20388207 -1002276.87224374
 -428325.570899442 1511963.09818627 648463.410715386
 1290133.85201577 99248.2876040699 1102589.86993832
 -408743.059515780 -1159466.66836825 1174123.56940857
 -693296.236222249 -1040459.77252657 1151861.01183868
 507535.615097968 1392489.54738405 -832694.697853471
 -154946.104906365 -791706.902112315 1496392.95832414
 936178.670027402 -578748.014601360 -1295615.77382367
 -8282.39998982255 1667635.10498976 330037.207684532
 514232.179211829 -1547417.49861577 480691.533980740
 -1081686.77350677 -1283827.02510726 -267846.772660680
 1610175.99895666 -519009.868207638 -167218.447209064
 947572.424584947 1334662.78154834 -459109.746918808
 376240.108883689 1656354.87952377 -70227.4415380549
 -953709.374354664 -859794.403341977 -1114087.97374797
 1446754.96581194 -862802.439951653 229067.715996776
 -369748.342726737 1635392.98835049 -280670.512709963
 -1425936.35566610 144118.956663880 -914294.939239957
 -582785.850417596 -1067160.54961260 1188077.86525277
 -676546.806081931 -286631.321152860 -1533012.36293596
 -1142792.00632080 400234.619451226 -1193247.11593283
 -986184.169309008 -1382372.59208009 80540.6783561195
 975478.949909512 1082825.38343917 875174.272509916
 -183875.361087887 -1688908.25311163 -61471.6532737228
 597215.778366879 -1490013.60170518 559636.293322023
 -1003275.95275932 -505733.019455057 1275802.28705225
 930787.790011794 -1227219.74267977 -719420.456438354
 884005.087898473 -822286.710558153 -1196820.60903423
 -304462.891008590 -1643517.79356723 310083.231127678
 473340.707460191 -1103266.89546413 1203640.61581272
 943878.617189372 -598334.563618363 1281049.92330209
 1136475.38669962 1154939.09525954 -514333.920393189
 279582.757256470 411729.791254461 1625519.01275821
 -154254.522105443 -740625.065709470 -1522392.87125658
 -1498067.99449412 -485713.705583595 640214.401650423
 832507.911181593 -1289994.96869883 729961.340450132
 -548792.414250678 -1597104.06218653 -195155.068107862
 -25335.0146300715 1610384.95828937 544075.751296659
 -1085351.45297605 -803940.636530896 -1032323.43597202
 -68328.4236850049 -1698171.49511343 -39303.9400180516
 -95391.0513396477 1371630.44333973 999765.209550711
 366938.466647654 64636.8705094500 -1658667.60885508
 -620789.696066953 316568.174545269 -1550614.31185262
 -575141.861301233 -1085915.38596754 1174733.84811111
 -1519425.28295076 461618.749325406 -606840.127052619
 -690143.881555765 1547803.65421766 -134183.720106415
 1076461.32898848 -1312551.65090502 91864.9601254447
 1551127.42588075 -595715.719577216 359341.745597631
 -1594735.94538646 -524581.678678118 267640.293841560
 -260015.865186989 -1456874.46057227 836605.376496771
 1683778.80709365 -160282.775728083 -170875.277870129
 1049500.95616073 802782.782310685 1069620.28189598
 -201923.263947252 1687955.21021050 5848.40149979391
 -1616678.78430809 -381837.694318785 -361316.597412059
 1128105.89487049 -914115.078847919 -884177.986935500
 264603.635424628 1125205.68670964 1246554.08174550
 -280257.262275495 -1217898.39932255 1152466.63980759
 -17187.8854685596 455590.535713332 1637724.59234194
 -868482.367487268 1274642.51936101 -714860.003917367
 -1096707.13950992 -636973.312273305 1132032.88362112
 989893.414000427 1378674.26742809 -96789.9439517683
 634884.503603657 -600117.492532857 1458348.60792611
 -462380.758575392 -363227.608082995 1595076.71878990
 514278.215006799 1279206.41323894 -994559.636169595
 -1547055.06058710 -689619.891470769 145069.103532426
 1039780.07662138 -1331922.73254131 186652.690312603
 586597.143407909 458197.349195448 -1528384.43479903
 -396937.256522417 1632301.53408617 260830.435732500
 -804598.048370484 365668.537440329 -1452208.14668031
 1319339.41895054 -138535.389717737 -1063085.81186987
 -1306341.42997817 1070943.39526897 -191186.590670886
 543263.152667171 568413.263821463 -1507239.69841096
 -457225.747825685 544949.545282975 1544012.50274119
 1266921.30310742 -1133388.61978946 18456.6590785246
 192503.733088088 1640971.80080045 -400192.280941138
 57913.7640691809 1197144.21548168 1205608.44525496
 224239.927802652 111924.551087083 1681424.79749854
 804517.632892446 -752634.915106837 -1294716.98178685
 552474.942632159 -927316.526053810 -1313337.54163623
 -104306.163592947 1585890.53694690 -603383.318512208
 -1047906.55665925 -1210073.27234431 -572376.208510168
 805989.719061624 1202300.23039039 -891546.257224029
 132846.746078630 -525084.590248246 1611408.67415443
 714633.327875314 1540983.19580557 68337.3758253685
 574074.392416447 1387472.26855576 -797094.282980643
 -953160.431424137 -1344240.73202808 417734.420803408
 525585.344528419 -1018409.81972442 -1255627.92446880
 1521553.17726861 -758196.905448816 3658.04751774334
 -71261.6150402190 633032.211800588 -1576131.97450109
 219592.416725527 -1073977.13738797 1299366.10656296
 316808.811239851 -1642359.21123102 -303790.056462395
 352878.725254961 -1596012.34977644 467141.503854573
 1473449.37990326 -416218.331338870 738721.344973996
 1400693.85305972 959428.163246638 86915.6462893422
 1315819.84902735 -976626.301132435 -452569.544757501
 1387572.06832173 702895.976972603 685989.067528849
 1371130.90764130 -925217.549949012 -392393.322289107
 -1537529.34133959 -180625.496384325 702408.680595402
 -832216.957998822 -1015703.85434217 1079703.94789204
 -166768.851591404 1175574.98475337 1216639.47221886
 1193703.11419317 984118.166914774 -704687.383677208
 -485685.032295469 -1620292.80736265 -169591.473290971
 190735.363218459 1337894.03048966 1031338.73407240
 230533.775051919 -131934.983305939 -1679121.00181624
 -11598.3610580808 -545454.908043391 1610075.90545047
 1322508.08505288 1054999.41301250 -167178.358387185
 -1186816.69791451 -648335.540145315 1030110.26251358
 -1238145.50491692 1101291.18061428 379675.445815560
 1125797.35945263 -1205232.68854695 412303.858710268
 1470415.81443124 846999.079022034 -102322.494136583
 1109216.29028461 -748900.975170275 1048230.19931514
 582874.499121522 -274327.757651335 1573213.78065914
 -1451968.94895742 813951.466099955 -345353.705781813
 701182.891009246 -166106.230832351 -1539724.41476863
 1258123.41394089 -695254.839912676 -907604.640177501
 -1214062.86329549 -571622.379481270 1043694.98381612
 629284.625385167 -958921.194620672 -1254779.26455656
 1422537.11740970 247886.610245476 -897184.695618854
 -1004498.00547143 -1364794.02686716 135355.166992737
 449943.148693190 710408.999352459 1477453.96428555
 1318050.47396658 516822.895829824 941082.909430705
 -280948.039831813 -1389021.46624255 938982.196440407
 -1542297.16822171 713577.982814458 -46107.5626959227
 911087.193385692 -1121122.47612520 896105.194480809
 203024.489629865 -1686861.79420959 57256.8235806797
 1427261.57626319 907247.526961674 -172702.975494447
 835159.135917196 -870657.989157023 1197691.06350974
 1424751.43550722 626141.438866942 -684127.360623564
 321846.565268728 1603356.52215459 464394.930300759
 -1019911.85774046 -1351363.53355899 153611.205995395
 1238565.99385074 488855.775686217 1056870.05324910
 -872426.716693927 -690429.328443223 1285371.13956401
 96395.0959284585 -886908.684515641 1447100.88480786
 1045397.56900651 -1215281.91296447 565892.034523099
 -1697897.20398184 33958.3064743248 77407.4811115441
 553850.489013698 293815.175085030 -1580165.26942882
 367747.032742770 -110531.272230599 -1656063.08991173
 -1310650.07596590 -1044147.29924999 -286273.987360915
 1687188.88938084 -199480.449503518 -60010.0142953119
 381776.654503018 -749759.491600717 -1477195.75237377
 1510537.51287197 -471403.349304982 621333.488933761
 -1317473.11004037 22394.7374388544 -1074133.64161803
 959116.279234976 861246.367563579 -1108309.82007063
 1446516.60313577 612817.128687989 -649649.816161874
 368467.302052613 -839077.131794757 -1431845.45751878
 -307833.098986682 -295488.812720405 1645577.45023604
 511799.442390324 -418051.864540296 -1566299.45071922
 1136863.47583639 398173.689255538 1199582.90688632
 -192331.560386457 -1056397.22671511 -1317965.65595160
 -391652.882700435 -660160.486664560 1516837.54941630
 -1214847.34000665 -26719.4414660883 1188878.46810619
 -915068.383497952 -1205189.19615491 774705.657003960
 -82834.7164341473 -1014824.74776188 1361348.28059660
 1294635.65770665 637104.510799000 898897.300092752
 112647.993974497 -1514301.99603350 -764329.702590768
 904641.106993204 1431421.36176079 -150523.594937751
 -1604830.50794823 -122352.971004637 547310.507157464
 -1165903.42729714 665501.837437967 1042965.24514649
 -336908.350275092 -1274516.67558380 1073359.21628024
 -777962.602034730 402315.813073408 -1457023.05279856
 304169.139627742 1538348.66771813 -656478.873253337
 1665581.84541673 -190841.765842792 -281809.397693178
 -1023487.06946072 -1177115.09913531 -675924.745836677
 155309.101294161 -303100.804183807 1665535.64523799
 -1638185.41026802 -219355.271575097 397783.642722034
 -1369359.69603552 57164.8095166031 -1005776.42019806
 -1135968.40293173 -379347.013673400 1206512.17596749
 1177280.07570471 -790733.850818896 -937417.516647642
 1532451.75890569 379709.030503225 630406.740748517
 842674.285891376 -798434.040141717 -1241935.23641148
 145556.810189797 1456941.52955297 863790.827961964
 -1321247.94356732 671432.694748624 832755.671275637
 337932.707316958 1582627.92123810 520663.373248967
 155557.341867593 416991.936689617 1640707.05432961
 298539.491501387 -1199893.35672082 1166674.80666694
 1621667.68525458 54432.7844924234 507179.446126770
 1493408.58446824 768759.926986369 262181.186389277
 -153529.475755250 1613262.09404402 -513628.383167254
 1587648.76428703 -592498.587530702 135339.665405165
 18580.3919422141 -1671666.98246950 -308519.478731224
 1011811.69272420 -442581.411880781 -1292423.61179460
 1601012.37598229 571609.645550642 4667.44737676459
 -204528.840684615 -149234.831926865 1681040.42731517
 1310101.02913647 1083344.36009876 539.349403951059
 -1229426.86685384 1051882.33375472 -521587.130777473
 1659462.16604306 -1442.63459154083 369030.131936541
 -390991.873678703 -680380.183363831 1508047.79791723
 -1277875.53068264 289874.015221259 -1083054.56159054
 -688419.327823902 1447618.86635489 -566108.158262940
 1453262.66002570 675232.108921905 -567529.065384225
 -1683043.65017157 -27832.4814318090 237885.318156654
 279856.194206157 -1675774.30580790 -58830.1500804194
 568531.670525973 -1333514.39777423 887981.469704062
 549611.317010100 72977.1787828113 -1607047.52001654
 -1486031.13762520 233462.693981285 -791963.779807736
 545618.433457490 -1246259.67331899 -1019380.86686490
 26255.6424958207 314149.074441704 -1670515.19007298
 -1423570.75014676 832656.773672078 412466.988478592
 835777.576151979 -1468380.35277339 187976.016530371
 326503.601285592 1603344.78112879 -461173.406838042
 -1657198.94481200 -59388.9712470924 374385.639959945
 1653099.47608087 368141.503144761 147424.407217626
 1068139.92823001 -1304231.40500909 -219220.290823603
 -1471531.84525978 777733.263794569 346013.003763998
 441912.385428665 -987661.046010182 -1311197.58305101
 813652.384390619 1481158.93347775 -184764.745431905
 -421958.690655940 1642795.45238626 114777.894208515
 -1575604.12818043 -301150.734192222 -562832.005625376
 -124436.540899435 40284.1148803606 1694960.98402804
 -200704.979889417 487146.693756560 1616293.78821105
 -20295.2146059672 4712.63799328675 1699872.31735423
 -898580.129402638 -1104044.61558107 -929321.923689087
 1360765.10600029 46076.4744464408 1017936.77838784
 838178.476141714 318724.538548309 1444254.65575151
 1482724.54530943 -217615.899454447 -802602.792819440
 -319950.306982638 1533684.16250852 -659882.330974432
 735821.179646324 1526017.38031295 140847.955493495
 -245914.795966132 1639211.35575070 377507.674495372
 908707.117738038 -1415339.36603229 -247115.060511394
 -1587938.67896268 -330379.936271833 -509214.934544604
 -365960.198293182 -1435786.39285499 833421.002469736
 -168157.866728946 732356.767125805 -1524918.52159458
 -688638.762141915 989219.585893144 -1198841.63514663
 1618528.85533113 328326.885551714 -403194.494858768
 270393.445529732 328857.891083362 -1645824.98221614
 738126.030697930 1381364.73866521 -661060.830467609
 -38567.1457854700 -1548754.13582903 699909.424153180
 -220267.357353478 1530880.16553059 705611.940140992
 450185.963520315 -337577.247915320 -1604173.99303791
 1631718.47622176 50046.9596966006 474331.230451533
 1106449.34470050 -1256198.85628946 296199.731716439
 -230960.064828073 1114712.97295808 -1262565.81467010
 -1458712.06029387 -663546.771086657 567331.303326081
 -829375.155755621 1111577.58411422 983123.657283327
 836744.909984520 -174080.360019726 1469542.10006736
 1396851.41030515 -42681.5400046714 -967979.557465620
 568446.593713851 -1078041.07440057 1185198.68039093
 422365.490380105 -1629172.74715299 -239590.384761029
 192215.468627690 501437.115319557 1612951.96239697
 161029.470295075 879616.087991515 -1445802.56170854
 539687.801688773 -1178555.71450042 -1099883.40496925
 640138.425974232 126904.391371648 -1569750.95828664
 508287.988287052 -974006.270775343 -1297287.59550587
 -867477.533180214 1455339.04501188 139538.501824737
 784924.795625733 762387.567952315 1301022.00651782
 1172501.01338033 137309.684538262 -1223269.15441946
 -320483.521566589 -1563990.64208541 -584143.461722841
 -1022898.43780500 -935357.771399474 984268.573824598
 -1593567.30596438 94151.5273338615 584532.917175855
 1690617.62770233 88025.7624821061 155124.150413770
 104579.144682364 314907.388136254 -1667302.17399088
 1500157.66407016 794846.992894033 88007.0498248594
 1586437.96164681 76665.8589438421 606083.278038838
 -158806.355670164 1646495.49755370 392215.652331924
 468675.676307184 -342146.720883375 -1597898.22323788
 510835.524926670 1585327.83311330 340268.611583808
 -1628520.57075222 -456850.212942925 170905.335115253
 162111.233390126 1261788.99922185 1127656.18406119
 139098.796860996 1687680.91481447 149615.020913049
 -1229709.33365174 -488062.809813303 -1067525.01067045
 1054530.91456018 -782463.973651057 -1079682.67568534
 348921.376376380 722091.457992468 1498945.56252118
 1571454.30417680 -122089.603088421 -636887.351657972
 -192541.869367084 -1121313.22888806 -1263164.38805931
 391477.936070976 -1596531.50767104 -433396.089718435
 -340885.323488040 1639348.40361661 293826.492662123
 1319487.43892334 512620.429146276 941367.725251621
 817264.127333346 1490632.85635701 -9645.39905876462
 -692380.674054587 -1536333.81898239 -224248.520277612
 467188.162560350 -1287778.27848428 1006658.99202637
 152588.219079660 1325856.41505551 1053005.98386441
 1516859.05242319 -140016.731279370 -754674.718036632
 -670808.215175033 -236850.914909453 -1543994.16532584
 405842.906829195 -1595191.51496794 -425035.957950303
 277251.931556669 -1094205.11767491 -1271159.52063545
 462795.728118592 -1618479.68613613 237368.109905018
 -202225.679222280 1405711.67579335 934387.210529620
 1414501.25996256 449223.791665376 829086.346869917
 -851487.602924173 -808406.406702498 -1229409.59149862
 821723.072803080 -1230708.85085496 -836735.869943632
 -621773.300057558 72815.1721139017 -1580536.59054308
 442119.720773613 -1054465.09828915 -1258027.62648247
 -1500826.57638599 61201.1680662248 -796099.242959593
 -584096.570217643 844577.458807551 -1354813.68192610
 1356217.51684881 977918.980948251 -307162.031660115
 -1543482.78668800 -638410.271342368 316375.113816515
 478956.582020134 -336128.487848922 -1596126.00761844
 714915.276402199 -1130155.88133366 1049592.22150972
 435876.980808460 989303.772745453 -1311979.15487744
 -625745.681175448 1554557.08819919 285997.555968480
 901249.980106554 -781780.224813222 1211019.46864983
 -595320.248557681 623024.687251753 -1465412.58379068
 322481.126389501 -1058215.07723490 -1290808.57350550
 -664882.614790550 679297.267643047 -1409427.66069138
 -1123719.06841379 907361.681343930 -896632.719965068
 1080556.14700012 1312287.40085282 -17326.0134826497
 -1343360.75774133 -634969.105812755 -825951.638550337
 1646906.14536247 330324.678185247 -261888.822497539
 -1231331.96254670 975210.439259608 -650220.114399706
 -1064359.35012012 -786364.700639897 -1067131.54362496
 1308996.95703839 631914.700974087 881595.585944632
 535843.332003287 1129014.20936528 -1152475.09239849
 -502317.560179349 -118739.770960939 -1619746.25652527
 507633.840639573 364464.297030510 1580972.37800904
 1106120.56648464 -1030120.76559917 -778041.451775593
 207747.108434421 -701514.743246541 -1534509.10845941
 -807822.026154008 -110490.205746718 -1491715.61917628
 1498945.93005213 -801668.160570491 -22119.2022388762
 -1638075.42005238 342113.505852583 -299444.932055060
 -1177540.50055183 237755.847575127 1202859.31284751
 -268181.052383419 -339646.809219242 -1643994.81998263
 89327.3659400310 -1670306.78947582 303472.981870229
 -571644.383910675 721091.745316326 -1429422.74823792
 -1426953.17954790 -275624.807652414 881949.878839323
 768362.944583596 -856994.009179964 -1251071.40228705
 -704528.757395192 174754.488074037 -1537237.81468619
 328366.254439288 -1532787.73624515 -657827.757518631
 667422.161498921 -783170.213075682 1353215.45797079
 1043428.84975263 -1204875.16651794 -591212.371836273
 -1000689.04554701 1031946.58191514 -907583.432085371
 724733.682122154 -1537447.10252575 -31898.2277380691
 -1255585.10285975 17685.5013997256 1145946.45272670
 -232803.412105247 444013.073998547 1624393.72118662
 980904.810057604 619426.532034966 1242632.90034386
 1664076.22375832 -327768.580213618 115836.433590585
 -478162.394436829 1630037.75430630 -65860.7932119639
 802655.623424403 -391312.868794494 -1446588.46563251
 -995389.339068888 1377746.55662221 -31851.0499612336
 -1305286.23357555 -1086199.83041859 -79986.1040229243
 -187144.912885837 -1636891.23386710 -419003.424890531
 -1399014.89807636 309095.782211828 914995.689814578
 -529047.351747287 -1097062.77710623 -1185985.73460946
 -717228.149234995 -749120.108035157 1346997.71554459
 1420825.21608205 -397160.936793541 -844700.476873703
 82765.7916133854 -246380.666109319 1680013.80682009
 890306.600774989 -1351805.50912252 519592.169035005
 91001.0676814764 -716418.110771724 -1538981.44765917
 -704871.271284863 1528468.83120384 238620.038881150
 148106.766251797 -1006385.18462889 1362076.81352775
 391385.060143048 -1002047.76721540 -1316327.46948297
 1098072.92615075 1163402.21037634 575092.293241866
 35982.2502238360 1530432.85491044 739243.230797226
 739567.819522232 -1151106.45677499 1008956.57265220
 -791971.073055419 -1253593.56994056 -831435.494098689
 -167218.361625218 -787974.753987999 1497041.68499509
 1458820.11599577 -100218.932356791 867064.031524396
 745627.868760998 1054961.70395858 1105031.62149675
 -143830.419098831 -1156497.45432685 -1237669.76559880
 -116714.322474761 -378860.114177760 -1653131.20496060
 -47274.2941901384 -160191.567514550 1691775.34052428
 630053.830736738 -1126719.66337276 1106135.15021589
 -827530.430268823 -419418.607677124 -1424528.48989175
 1106100.93737552 -910206.662112370 915458.654764510
 52057.7795181758 1672719.41396694 298830.637200601
 884505.600568770 782122.287190896 -1223084.04062916
 1352458.40121608 -901720.676259306 -497751.037152607
 385059.252092332 -1541409.36069049 604802.906039505
 120852.371814600 -1680338.09937549 227724.781290803
 -574835.927239850 -1510792.84599298 -526373.093205511
 303541.677753067 -217164.160293857 -1658524.09610193
 737726.121853061 1402293.59736665 615900.021042501
 226867.774093584 -1567500.54236045 617635.056305528
 -1208201.95196329 -1195912.22980175 6479.34276805946
 -1081374.97174703 770452.836849445 -1061616.97267412
 -972695.769314713 -969958.437744030 1001520.62854762
 -1536589.28084031 640008.797321726 345372.438618731
 587845.594822972 1284485.60827735 945798.223076995
 283909.779539043 1640367.66583727 -344367.765561275
 288611.811543399 37896.4254383968 1674893.15574953
 648431.381260027 -1561516.91508377 -176639.938022169
 1380548.27447511 -727240.951932532 -674690.343547368
 81878.9937602282 1554280.04933190 683746.560232393
 1208210.64851030 580993.655166056 1045310.19390567
 -821952.281036121 713078.283434615 1306106.35454907
 1177056.43251164 -266500.266314071 -1197295.18613310
 1580762.05068386 588536.849123625 -211697.227996501
 485500.330561032 197720.728743576 -1617156.74640717
 626529.336993293 1429856.72782755 -673031.000603265
 1285007.79873256 -1112873.73471993 16340.3723034731
 790094.268633488 -1300555.25137856 -757830.511911584
 -561438.230147634 467495.011806268 -1535003.42920299
 -1433979.26154358 -559563.660782219 -721520.607463800
 1352424.24380787 -38322.6704206277 1029310.46710531
 121903.532290124 1344712.67978920 1032902.38533433
 -511655.870199380 667561.558449487 1477352.30604315
 519967.294605607 858733.266013702 1371937.02128850
 121905.488381210 -1661454.28245575 338686.756770915
 -1055332.83882328 776660.713338340 -1083083.90056263
 207842.908893551 -1521560.19228617 -729147.383231088
 1209124.52614167 -1192009.60836070 -84445.0937500302
 -933943.595014248 265384.017735441 1395464.32575772
 132463.885647651 -1693975.36992665 53858.7512015748
 137208.541202086 -1461368.14183852 857657.839840933
 -894429.007908850 -23277.5686103765 -1445494.69200367
 1355133.53953722 964566.578478981 -351033.339873395
 -666511.352168117 1210575.01653796 -990086.231984437
 -1494126.87519960 371259.149980457 720937.947650187
 956169.494542828 1404425.38050248 57699.6387006402
 -1249778.31296371 -976955.851907947 611237.623079927
 1109575.78935674 -1271833.83287027 -203175.464168027
 447873.766082165 2936.19495349573 -1639939.16607128
 1081847.26194357 -768334.055179866 1062670.82460941
 1043197.27366902 -1185978.95087399 -628644.077593486
 751434.193757038 -104409.836064112 -1521330.08863487
 860478.782797684 1394093.95533905 -453958.487135268
 876090.396232052 846188.270250281 1185930.44860177
 1174521.61782606 -1000999.90650433 713090.566784880
 -522428.392729685 824880.821267842 -1391632.20901730
 1699895.02719502 -8147.11407016769 -17044.6780543875
 -1659632.90212891 -24608.8530142678 -367441.198730496
 -46442.4587533176 -1512795.62121451 774139.849419445
 701027.264343657 -932889.900984129 1236235.09385904
 929324.196650394 -112498.913333525 1419049.16476452
 836393.083890772 -1193602.92636633 875076.375746383
 1366027.66457530 -799309.655382583 620542.097223964
 253650.858244176 -1340574.17959830 1014160.79154458
 1148697.72062179 679256.528939807 -1053140.12103374
 868003.370795159 -64236.7477197091 -1460288.94008365
 698159.404865109 -684932.790095648 -1390482.11727091
 -1597384.56249295 -176567.270744472 -554244.132500346
 1323664.37884001 1020115.62743273 -311892.159019122
 -138255.847871832 1084484.04828962 1301837.03647369
 -346406.052922532 1515508.17145425 -687922.836337060
 234457.265556716 -1152637.51601210 -1227377.91543971
 -781130.773277995 1200781.00542986 -915401.383021115
 56530.4557498682 1284022.20158531 -1112695.50794848
 411866.893065000 279327.137508517 1625528.22573103
 -1077009.04740215 -691729.370418779 1118732.31378822
 -423319.350515378 -1553602.05498635 545088.416884304
 887003.305490347 1334579.71806832 -567558.025377041
 359143.363337274 -1329892.37514022 996193.914413603
 1644312.35798078 131437.342507708 -411048.773731516
 68690.2756789604 1235405.07696769 -1165785.54710101
 -265793.776485432 -1623157.04752526 429784.675681530
 -903442.954635171 -1420603.32816365 235959.767185913
 -829784.035621494 -890029.828680078 -1187141.67574364
 152600.904160406 1586026.27410640 592649.662021002
 257649.746996461 -592666.586708021 1572374.93139280
 1554448.44052557 581067.978296229 -368849.631077990
 -800949.226763674 1159429.15251439 -950896.617117987
 -357989.144704886 -1319026.64834577 1010946.32559162
 1497573.34378836 -800808.822492910 77325.9968709214
 1117194.22259584 686836.582993455 1081726.66476350
 -1271237.52546885 814519.441329067 781353.462612678
 -581550.521556396 535115.963624688 1505141.15495906
 586539.252419832 -1046408.85823023 -1204574.69954673
 -66026.2114557831 268235.880422996 1677405.75051312
 -43269.4247871195 -137365.978394074 1693888.52787261
 320906.761690619 789060.045143322 -1471191.04655366
 -1571680.58854446 222206.252682221 608641.527388228
 -944684.108356813 1399619.30051422 196564.872360725
 904142.644532809 -1439093.33949936 39197.4303470345
 1173294.60537266 -997790.991843512 -719578.283162679
 -1518919.73738884 603461.587489200 -467671.833442660
 943004.755306573 1290431.75462196 -579247.717416727
 -1432800.08242118 -558760.018248059 -724479.927824973
 -1509701.24584395 262328.700467833 736196.849496177
 -20456.5223050173 235145.396052817 1683534.42893525
 323489.244444087 -984734.970310364 1347461.22281008
 1289593.97994716 -647061.743218458 899031.961248945
 1692341.82637784 -21819.6178102685 -159696.734377181
 20455.1845292327 398176.769760316 -1652584.89810633
 1340586.23057232 -1034308.95157589 151768.083238426
 -803677.648667300 -1386772.07534798 566538.125872982
 770057.371319114 -298967.831605664 1485809.50344992
 19329.5606661363 767681.390606403 -1516671.24011800
 -243477.016994080 -1606408.32368219 500171.210487225
 1393803.53438985 -686150.523144177 -690296.434230493
 1026123.35638276 1345951.50840157 159641.456136328
 1106067.66075005 -1205664.90380965 -461504.571553290
 28500.9937146494 -144970.723304927 1693567.59024898
 329632.794215219 -300742.663112920 -1640395.09617702
 -108001.651965236 930788.181560217 1418438.93215063
 426219.648401411 1042157.93674639 1273673.28863924
 1037434.14841287 -152289.351278417 1338109.98845165
 418433.060594222 1496882.65456175 -688662.538747330
 192657.769495077 1611812.28520853 -504919.935340272
 896964.309286157 1175780.60612784 838447.967449656
 895300.682554679 -353706.192247186 -1401188.28762701
 -1185340.16545238 -1046782.67546777 623870.757854429
 536495.616628260 1541929.50116187 -473947.113911832
 -43155.7319030500 1696772.40845794 95399.0393020598
 -408342.836300589 -744142.421535207 1472925.04375264