# OOMMF OVF 2.0
#
# Segment count: 1
#
# Begin: Segment
# Begin: Header
#
# Title: Oxs_TimeDriver::Magnetization
# Desc: Oxs vector field output
# Desc:  MIF source file: /home/martin/PhD/repos/ubermag/oommfc/docs/ipynb/thetaevolve/drive-0/thetaevolve.mif
# Desc:  Iteration: 1682, State id: 3373
# Desc:  Stage: 32, Stage iteration: 50
# Desc:  Stage simulation time: 1e-11 s
# Desc:  Total simulation time: 3.3e-10 s
# meshunit: m
# meshtype: rectangular
# xbase: 5.0000000000000003e-10
# ybase: 5.0000000000000003e-10
# zbase: 5.0000000000000003e-10
# xnodes: 100
# ynodes: 100
# znodes: 1
# xstepsize: 1.0000000000000001e-09
# ystepsize: 1.0000000000000001e-09
# zstepsize: 1.0000000000000001e-09
# xmin: 0
# ymin: 0
# zmin: 0
# xmax: 1.0000000000000001e-07
# ymax: 1.0000000000000001e-07
# zmax: 1.0000000000000001e-09
# valuedim: 3
# valuelabels: Magnetization_x Magnetization_y Magnetization_z
# valueunits: A/m A/m A/m
#
# End: Header
#
# Begin: Data Text
 -279599.266261643 -1034868.30897618 1319421.02203305
 507178.909335129 -878568.801276517 -1364143.10662378
 651950.945846031 1303228.48184216 875531.546162586
 -448664.111573099 -529107.277083630 -1552013.53226171
 -818271.209535185 -408795.306139048 -1432940.55191571
 58248.6072996821 -1522765.56756869 -753519.824540031
 -1051089.87904963 -703566.946572835 -1135871.30338327
 -297811.858694834 1513466.46779032 -714651.906661567
 471718.849632353 -1474989.29257096 -701347.213370482
 -1371572.77374353 386526.103154701 -927030.580890141
 -64508.3814890276 776674.716560702 -1510832.56960294
 -135371.532140038 -1688166.39410754 -147542.448441131
 -745251.076386169 -1218474.58181804 921911.344223847
 -1115190.02902652 392815.116893980 1221493.95540846
 -1589370.72890490 -1571.44640708774 603239.767137832
 -753171.949988202 1025252.96597117 -1127647.27176466
 686623.705598123 236776.430299023 -1537037.67324212
 1336231.42616427 -371038.033431419 -983268.200176512
 -1179775.21017124 565318.145221461 1085608.51514198
 1693275.02689319 90202.0765814364 121174.538085581
 337705.660633600 1368011.50141140 951051.743483057
 -1653923.25284045 -359995.147543111 157928.361794463
 800312.760287530 -67067.8739715030 1498332.86889192
 254685.867306707 1568458.69083284 604212.250906233
 -1081672.26511240 67867.5003758366 1309724.82349513
 25865.1109225536 760598.008327205 1520138.69951582
 1071824.80060727 347953.535262629 -1272839.31982848
 56079.4551606542 -1198246.21071026 -1204599.98058583
 -4425.91990675722 1662626.17961913 -354477.923259071
 1666920.50603251 -45204.7747520802 -330654.736708753
 697159.991911834 518375.014670226 -1461251.27539487
 -1226107.94199013 -1173843.83187784 -93541.2900867197
 -1643058.13557597 -58200.0038251474 -432403.425833307
 -862446.019013228 369912.140807269 1417516.09245596
 -816859.347570592 -801769.678945215 1256943.19211754
 1321152.94708176 -1009071.70307410 355428.176249856
 101664.149880933 337304.972693497 -1663096.43617718
 -1641680.06839921 252311.409337540 362250.611785380
 1129303.78512732 1253273.31837054 -209711.588515283
 1604377.82830285 437166.513671574 -353351.416262139
 -296057.867331610 -1613517.21936016 445995.428249335
 1267911.75656568 975350.611038450 -575405.042652082
 1624346.31600883 479256.782437392 -147688.801729516
 1110906.77781319 -884665.908082670 934479.728022490
 1663555.16793103 -294041.361599535 -190062.834132956
 -1227303.89415066 1102318.47105073 410632.609254310
 1145086.86006996 1256364.20382752 18029.7042671614
 -704671.016892683 -1409095.57107664 638661.435757336
 -726877.407809744 1215654.68034267 -940123.891929539
 -1209793.57493777 1001089.72335793 651320.867028244
 886112.179392505 -210400.322354000 1435457.03867639
 -1289592.76493818 69532.3467356695 1105493.44338921
 -606546.484024365 1496072.50965749 -532793.026009918
 -738308.568528176 496453.098248702 1448597.52135545
 -1662005.81194572 -213918.103926892 286314.033660566
 20219.7061440290 1563423.09023712 -667307.578554950
 1192391.70685775 -913334.399005229 -796255.168278751
 -555404.316655074 -1178807.52536811 1091759.52625861
 -558373.977362717 590578.455135082 -1493129.46181314
 -246293.503099394 194951.403335855 -1670728.42217651
 27366.8659240328 572485.053853178 1600472.40456192
 1084747.91499598 -210885.711734712 1291839.45500128
 -371929.281286561 1264427.00362831 -1073728.53283184
 -373924.297545863 -1394098.33813235 898148.341490124
 394668.891573844 -1005777.97634012 1312496.52507466
 1288543.46327497 900086.038345561 647688.865757880
 -651420.902471460 733510.996024362 -1388384.82652852
 -646522.728966685 -240960.429451918 -1553688.00998393
 -612042.608529328 460317.486074401 -1517732.40637431
 25027.7391116580 311923.234006240 1670951.07898527
 -1122259.51710952 1276586.89528883 -29316.8046336665
 37463.2822481639 -1699576.44875175 6033.02010525453
 1171342.12715900 726910.930318525 -994765.359532632
 1073642.81948406 402376.674518236 -1255143.06275180
 1134992.41028163 1092166.24142847 -639503.815224821
 -419141.866468426 -1622516.50892734 285937.535191872
 -557418.578378206 -226873.629970299 1589909.70954420
 -216303.944477092 -339012.773744829 -1651751.47732384
 219039.558392833 1313264.75126170 1057051.25937800
 1368820.83611735 -558654.625369526 -839186.825542576
 1572643.82747835 -638218.150595039 97308.7053931968
 215062.162536691 -1259287.21562805 1121581.01570987
 139599.857070274 -947131.773641197 -1404796.52735378
 -1078492.75343416 390027.045615886 -1254883.37485129
 1059310.19516444 -1329518.75551170 15549.5711613215
 -681907.910834513 -851562.460797624 1303780.26388713
 761296.414976912 49200.8081846035 -1519212.64114583
 959268.542856575 1377010.39197121 271378.413086099
 455180.901782170 1595007.90358837 -372505.213578838
 -1367782.22089326 437801.440260525 909671.201651509
 -1628021.24523490 417958.256555214 254671.790430633
 323108.017282181 1455633.99242873 816535.908122833
 -838530.148428049 679234.514872919 -1313585.80381435
 -914426.562062507 578298.519360018 -1311256.98667369
 -98808.1054915666 173870.062806337 1688196.12591336
 1488702.71482480 485752.441724665 661671.211578532
 1004936.72868320 -747729.820724828 1149348.63576825
 957003.060858931 1274700.81290426 591001.674352835
 -959632.736627878 301555.085009471 1370463.25798871
 1616804.57539495 75344.7202533337 -519871.270712181
 1012273.16487605 -1331296.32541183 -304882.163494003
 -1199125.38703655 -903979.202101073 -796818.616959440
 1602885.65002164 450912.682901245 -342688.408548513
 -1689766.31259801 -183933.975431469 -29293.3694017178
 -1591006.19684496 346319.904728031 -488632.587114389
 -661964.250695632 815064.061256433 -1336964.43739134
 1221691.37413278 -774983.590966026 892676.100331445
 -1177712.00562794 -502030.711512089 -1118463.05102068
 -1355206.52755341 573702.375384139 851046.915366734
 1274913.59175901 -999813.848975284 -514750.037343736
 495543.059667396 -929769.506353120 -1334153.56727453
 1524292.60745688 705001.882084802 263636.858404144
 -403779.312575049 203444.235372952 1638771.70766093
 -772564.555585733 1440797.92869632 466095.844346434
 335306.744032370 1574397.17296416 -546665.280742131
 -1504916.59185325 -472296.856615659 -634162.227506306
 -1244539.68234698 303169.228271066 -1117680.36490457
 -460139.669098199 -461177.830985999 1570218.61316482
 1036117.81631446 -862926.208354626 1035286.54470657
 -1691180.12443000 -165344.254200430 -50705.6637452730
 323389.880219964 265502.923539363 -1647703.60895501
 -1036218.50592946 -831430.118066476 1060648.46520479
 1397348.63292036 967355.238113602 -40504.8314375236
 164379.327491461 1653775.39957681 -357779.770875931
 -1501030.27672496 -127471.325887832 787819.249213538
 868804.930987698 1461216.43551782 4951.81421980250
 -416480.154890647 1010234.26144059 1302294.52029633
 1174999.57989504 1227452.22573919 52316.5439835733
 51255.3406759983 69155.2803759080 -1697819.31819859
 -40236.1568697026 -1620161.52348335 513281.296663391
 -957118.901181969 1293692.46230217 547981.041627149
 4486.44680855470 335161.891668593 -1666627.24631759
 -1193689.61581062 -909307.259771010 -798915.144701627
 839424.283063694 -502803.309504362 -1390163.91298093
 1117373.74761591 -33084.9864397165 -1280773.70827600
 1134424.86538830 -211258.315606245 1248379.00850501
 -741803.064174174 -919091.221664752 -1222701.73805413
 -1044882.55522057 -1201190.45200624 -596122.423504413
 -448346.483925878 -931268.659823394 -1349712.60406875
 -1301550.00832077 1093068.57452089 34185.7753321295
 310430.896127845 -331574.715075358 -1638197.44446509
 -573129.615445158 305411.195949986 -1571065.38542738
 1046086.91612114 1183307.43992098 -628876.511365958
 -1631149.22833417 314703.110449527 -360990.508432347
 -538811.914151322 785938.528885153 1407828.94912075
 -1250297.40226208 -944260.982808475 659642.025830879
 -347919.711562215 -633955.365356857 1538522.82044880
 -645376.545586833 1377641.26333980 -758678.893834489
 649641.918461359 -897567.046855361 -1289317.17361446
 -323237.462345217 1588819.31928029 511048.641147137
 1012399.96341418 983596.279720761 -947409.453509117
 1183481.44479389 847496.619492702 -878135.040740897
 -909174.883902378 -1028472.59531128 -1002818.60332504
 -634577.395151715 -2908.99689567155 -1577118.59645986
 1693757.46629853 -139952.147623467 39988.0198755994
 1326019.30624290 1039157.05955711 227651.938370182
 -1169066.26221627 -203958.274314849 -1217244.87958923
 -1651289.58575654 399266.477459835 -61878.7843191930
 1069120.88185132 1232877.42933394 476438.646866934
 634562.498336046 -247200.989822901 -1557633.49551045
 -791100.038855068 1433841.13816330 -456355.474421059
 175642.276179992 1443200.27004243 881091.806435506
 -468333.781996286 -1409671.58154380 826734.238331069
 1318121.13579988 1073567.25620177 3165.08594460524
 -1391890.56625140 -89343.0043191266 971935.429521736
 92102.2990867768 -1696928.95612028 -44150.7008263664
 -108083.048485910 544232.240923573 -1606900.53287977
 -421041.803777567 -480380.881484723 1575423.12036344
 -1203364.62883903 -1179668.47708459 224267.372196742
 -201953.851496008 -1662463.59661954 292283.136326334
 -577357.957383842 274251.018607000 -1575260.03181652
 -1136860.78200996 -595242.724213460 1115003.88411819
 -933149.093856981 -454233.300265132 -1346441.56113964
 1267352.12549795 -402440.772685522 -1059178.93411648
 -1196364.05471852 679632.078158470 -998405.372038563
 -961470.507524903 1252118.06916696 -630693.906760960
 1030470.61070703 211279.076690133 1335474.24992848
 -588483.909935287 -898175.340253987 -1317940.72169689
 -194224.728912066 -1411065.33742418 927993.194047796
 -15329.2594431084 -1648465.99490036 415120.316850545
 322584.800616125 -1668105.00023993 58006.5046869224
 -1620515.81893300 102596.319165059 503390.977155623
 1548189.33667077 -699727.218829168 59089.7372520679
 654988.023015678 -1568661.90338129 17044.7231185927
 902743.632111995 -1344957.64091636 -515890.374810332
 -462417.731564596 1400705.93847417 845099.234089025
 -1446492.66931853 -646160.064269045 -616551.805569959
 1121257.43947496 347622.686046738 1229609.78467468
 -287251.219019274 -1606266.13467385 476860.400716903
 523555.201719088 1295539.20799611 968229.369156761
 1342031.36012486 936405.122905502 -460540.198286466
 -373313.519304285 468213.319093503 -1591041.57837817
 -1073283.25034966 304584.121133571 -1282689.19761264
 -70181.3370830585 1674739.57464097 -283411.250758682
 15399.8907233179 1652878.41023975 397184.849067806
 -459794.921247488 1625868.97587241 187453.204001970
 1233187.55605693 -842391.966635523 -812172.534708152
 -33013.1430476634 -1320804.26609598 -1069759.89037203
 403898.053612570 1608242.78374371 -374728.582876010
 -631023.070017937 82896.5715417001 -1576368.62552252
 365558.675625407 -384943.350335623 1614987.76209214
 -777466.855526563 1185145.19436360 938603.301099301
 -70764.9521008203 1234969.54640610 -1166122.86702717
 1149267.70341441 1147382.81416052 502689.191904555
 -301471.548530273 -1067905.77856525 1287902.22980384
 443768.341394585 1619013.08571395 268078.882911126
 1267956.99848252 -1115777.26770577 -193199.738276863
 -972990.028312168 1375783.31875200 -224745.777821978
 959553.673458252 521454.834346710 -1302820.63365961
 -1262339.54460838 -900450.729090529 696912.733847103
 549652.167474384 -280076.924108724 1584121.02169389
 1205680.01595952 1125161.38947916 412731.809703560
 -40695.9948868072 924373.813083401 1426140.55747876
 -190755.331757319 -1089366.97731185 -1291081.71397034
 1531879.29820779 -8556.29603147261 -737070.285332837
 1484859.72946944 -784617.464835830 -263755.602167118
 479262.970551728 1028676.06189014 -1265753.75359986
 -970329.874279249 1387221.90075951 -155162.279998721
 -1679457.96859146 -256872.417269692 -58630.1371366625
 1670245.24219487 -316668.996354511 -1256.05462553587
 1268472.18318606 253499.816511891 1103048.57713141
 -788761.107476042 -1288349.14695626 -779751.493022126
 -550917.415626949 533567.014562973 1517167.17672420
 991637.169430384 1191188.00417606 -698374.443197305
 71640.0216686007 502282.852250381 -1622522.61729399
 1094211.97007456 1119584.76774582 662744.379362889
 713274.756256612 -1007280.54663756 -1169027.38310641
 1434743.59768813 -850790.321268258 328125.948576413
 -1293557.01546540 1099382.85037591 89819.7975926908
 1534173.31138136 724000.746029857 -110159.749424922
 -499110.789056233 -951752.124411916 -1317215.36353213
 531766.870006459 -1503271.43846909 589405.614366377
 -1168808.78481337 -1182250.58568327 -355203.571483547
 -1482418.71190120 360021.487939559 750212.830353471
 666948.712679752 -508153.344033390 1478837.24378395
 -777579.212472170 235391.442135394 1493305.54050421
 1304380.87611691 1002523.07738632 428413.362686487
 871596.077633389 503514.984656106 -1369960.92560367
 -593358.665706672 -1591685.43165176 66805.5424224080
 -174177.661057683 -1553981.41840365 666936.199081038
 689903.208422871 -325394.154479438 -1519260.41455652
 263719.651387284 -1646661.95712293 -330085.359318220
 390560.190144087 616285.865094448 1535465.55492443
 -694595.008005986 9283.85987752768 1551596.46325935
 45272.3830510580 -368429.273433531 1658978.68636403
 23849.0650523367 1473461.80142000 -847550.318183086
 -175363.421790812 -200856.090573091 1678959.35066264
 1259004.65375755 1115694.90187698 -245218.612145460
 -597747.272627895 -614991.454976871 -1467815.96543005
 -341553.156818114 1327292.83891668 -1005800.75602878
 435366.441115762 723915.465981074 -1475263.52224394
 -443123.611569357 853074.513271745 1402107.46366885
 530747.828128945 -1144614.16897620 -1139370.50475924
 449958.935459087 -1129380.42579456 -1188291.55102299
 -1102310.31584578 -1277644.96468493 -206240.907181921
 652586.791268370 -1132601.05983919 1086897.10603774
 -303528.828789396 -239476.420892805 -1655451.99082610
 1443593.68150216 164077.372403929 882675.420860958
 1012439.14859702 694968.256278357 -1175579.04589762
 -1125035.42499644 -1270595.94456294 99404.4172221943
 -788308.073456157 1466814.80837353 -342088.730097870
 -370160.632599960 1511654.04245051 -684019.854986838
 -276697.135941674 -748995.301800785 1500814.68970757
 769858.815544207 1023009.02000012 -1118378.26746020
 -866975.748723255 -335581.888075465 1423284.17665674
 -1113933.16518743 1250170.62599857 -293643.166761745
 129347.222378593 1398082.16306648 -958454.777951629
 673732.121403403 -1477976.54115786 501667.591514847
 868181.854679547 724030.499839863 -1269661.41254542
 -1538842.26839584 596061.990497679 -408257.977855044
 -1137125.36252248 -1096414.63978877 -628347.712309822
 -1628815.59864145 -360376.922841933 -327243.363729934
 380131.809698732 1205364.19855595 -1136924.34053227
 957187.878348104 1338594.49439561 -426563.178341990
 1602503.11944486 -496351.455688529 -274989.062701360
 -1112604.18572867 -363807.853825507 -1232783.74883591
 528434.400623412 890700.671330678 -1348113.27355265
 401116.848945697 497346.070534215 1575357.78781077
 -676465.914070469 -220638.041976279 1543927.69310408
 -585132.257286638 -1207769.14856389 -1043510.38579398
 -215813.212148024 -1535295.87624506 -697345.846655197
 -142188.248654528 150801.316854323 1687317.83158347
 460616.567826820 -892859.933415088 -1371361.92040812
 280453.392168939 615227.343813024 1559756.77919530
 681581.906103336 -1524063.22110131 320433.149594181
 -57181.9455437953 995142.459154116 1377106.28169816
 651967.480074333 -1101616.26540215 1118650.97717159
 -824391.383158128 81943.5861155734 1484474.35008799
 618846.476586291 841187.964439684 1341429.03162954
 1563942.76166066 -432509.036411514 506970.385399002
 824100.456660082 -1122741.36767287 -974838.580816694
 -570951.847568793 -704182.275489895 1438103.37272522
 107145.645020890 -1572530.24274040 636921.067652721
 -1518409.23437895 757977.486430320 99516.4660621233
 -1653508.10391732 390910.822370187 55674.7629867285
 1462603.85515507 863909.104203080 -66715.9842959095
 568167.101174070 -1490114.84866202 588849.626764272
 -138889.701439862 377353.990886997 -1651760.76245793
 -1290800.19549377 -1018883.24635321 430942.902962775
 955220.146623326 1364301.75644449 340932.821604752
 1549403.56694456 -286127.677314124 -638341.240258149
 -1034013.64289433 1340242.49725772 156734.919060168
 -4915.99919534775 -974835.482672608 -1392720.93926758
 652884.830156305 -411984.681247695 1514598.96374222
 -1411700.54327553 939140.772512131 -122947.897586305
 940733.445429359 -1415494.57238602 37359.0711383760
 942391.205515732 704194.901222875 -1227195.32139685
 -1437998.61008035 -802623.896594188 -421846.984133982
 -1388067.13024674 -678950.740027741 -708728.110451640
 1055026.86984861 -1105625.43640100 -744654.751062898
 -702276.346306293 -836384.461706866 1302792.75621029
 1475731.39460741 717565.396221510 444203.504168473
 1271412.24447377 -416750.445777924 1048727.78667587
 -631362.736582711 1546680.05770299 314899.815748843
 -493128.125614896 1512005.41701331 600553.303754078
 599919.876369502 742748.266866436 -1406563.59756810
 -991239.782468087 750625.869419932 -1159312.07955847
 416907.106624954 260927.112995254 1627300.06641356
 1263.55888584500 -310869.618724958 1671334.34224656
 -1186391.94838264 -1185946.31083223 275690.936804729
 -196496.174594691 1687762.08554959 -53370.3658499743
 -31620.0646601133 731453.724830455 1534267.12796128
 792327.317402033 1485158.95457279 -237739.987698239
 130807.338314729 288180.120713356 -1670281.90981901
 -1651747.78837660 233590.832685202 327359.995232216
 -522781.401598360 691081.067615148 1462568.48185880
 417963.860618964 1222693.20005923 -1104684.36657057
 -1224438.69495473 -523114.365072168 -1056930.10334302
 836427.771744192 867234.955447778 1199288.17000108
 -162223.253305785 -610855.117598318 -1578144.36646044
 1473725.50933869 -116358.560110990 839400.862885730
 134227.944612180 995568.358365409 1371432.28148779
 566525.340699713 109746.428176288 1599063.71350476
 -805839.702013119 443268.367015526 1429732.67762292
 100333.620513228 -1492482.67174411 -807730.548597894
 1279292.00705491 599752.203525814 -945361.970385609
 758930.827705429 -1520463.99588075 47045.0421266262
 -1645829.73461090 420298.421331806 67776.9997610206
 -1313734.94043523 956184.306307236 -499812.043323683
 1463215.17041472 -484051.255961160 717422.990062792
 -1180530.43751468 -1052414.56663076 623515.409628969
 549179.780125694 461577.059278819 -1541216.46352763
 674798.772497872 347528.934486498 1521141.10335959
 731433.998852103 -817559.961312247 -1298691.65508305
 500935.177707438 -1048119.62515430 1241172.50980741
 -337305.112939613 262051.543796259 -1645464.75172785
 -1220574.36251420 -1160267.43053825 232331.046580544
 -233763.569256588 -1557919.50041920 638937.730848648
 -1585649.13607817 -397171.784955216 466874.062772852
 -1129162.60353454 -1144663.91981712 552029.279520574
 -1200823.23499643 -1160396.28984653 -318596.937843305
 1667727.80185512 -174414.484229777 -279756.262861682
 -1534656.89486791 -634069.527631232 -364395.457112021
 1053853.75786711 1162780.05188888 -653708.503813938
 1473210.83492836 -299698.550768032 793618.683321667
 -1000507.59410480 531531.911076249 1267461.39256636
 -1428527.84111117 -759514.767889694 -521963.144798297
 -597271.064062917 1103059.04097734 -1147400.55261940
 -626908.037156789 60733.8061146593 1579017.95991782
 -54142.6089960517 -1006050.82539126 -1369280.94802369
 -145887.245205837 -374244.663870646 1651864.95914484
 -1163346.48445618 -1207707.93170767 279403.845345477
 384767.610846021 1520844.38233476 654970.419457729
 -809081.847961481 1078024.88660082 1035977.27155016
 -747453.949486450 -741291.406322796 1334840.68124592
 -1210641.99515636 -945138.049890570 728738.654260141
 -136422.658108327 -178466.694896405 -1685093.02329795
 1119787.60509373 -111195.155188020 1274249.33075955
 -875578.403461304 380883.792312205 -1406516.97328757
 303566.437435348 243214.334723373 1654900.05905126
 922736.661147102 -1270194.67862448 652044.885394513
 -974125.557764741 1341553.37103859 -375917.478131216
 -690145.130511469 1346872.65547033 -774360.219005098
 -1669212.63374058 -162535.997771655 278048.975522690
 -787684.348502563 1496876.82411030 170038.644329880
 -808027.446529993 931447.045145705 -1170255.54805075
 -635759.863071668 -1511453.15990373 -448685.571334900
 -1190016.32297974 952460.325523098 -752781.827189141
 669664.097029025 1498548.85878990 442607.405010122
 959074.531399257 996746.804591915 988267.094846885
 -415086.753085434 -1353008.89257460 -941843.895784782
 -83319.5872366422 1346228.36568348 -1034759.40866073
 1025614.72027739 288179.161872090 -1324789.49883105
 -1497862.15788485 764304.476841371 249494.734727572
 1121164.49988814 611698.055065828 1121969.54219767
 17403.3760911470 1697211.14030033 -95767.7802868445
 -1550433.63800038 -620448.426532632 -318118.349313727
 -1384208.26910320 945659.187213463 -282305.099821244
 -93023.2929626378 -754193.235401755 1520703.53147503
 818085.217793939 -1250581.68723526 810420.890635762
 548997.586008696 -197326.147901195 -1596766.74624414
 307844.901609565 -1556051.21955026 -611503.163269949
 582243.586044562 521920.652352978 1509500.32764402
 1693023.62549860 16997.8970515540 -152911.984485856
 -1120363.59355476 -530320.754716355 1163419.66433190
 699487.566292384 1381410.69193473 -701727.614399469
 -48864.0423412354 1635140.18328404 462524.471110347
 872668.018757976 -659877.872673566 -1301157.83907750
 -24454.4327530484 897489.309713331 -1443577.12633202
 1021830.15323826 -769094.680874645 1119980.58455645
 -1170135.75103053 377161.320616582 -1174108.88012611
 1296098.35363352 -923733.608345875 597365.280645585
 1613786.79847883 533858.760769968 -26210.5437675753
 1297324.17321611 -1088181.39590820 151033.900791919
 554952.775959610 -1550901.74554114 -420394.091457255
 486740.007036416 -58859.4055660481 1627765.25823799
 181265.111308743 1043836.09941106 -1329492.06729056
 1050581.34107280 -656731.339724116 -1164037.28171131
 -298288.008247810 1619501.88761346 -422182.306772778
 -494109.167805489 -266348.179034033 -1604654.09911788
 927024.424381021 1424237.53460870 -46617.1815190316
 -164352.187987206 1611597.11650717 -515502.756898154
 1213894.58136134 -691826.926893003 -968419.045954464
 1502920.73813279 249714.274646550 754236.061142747
 -1522447.21552621 559569.693103066 508956.024128839
 1372296.51824685 43521.1694015492 1002451.08300679
 850058.629648537 -1336698.98795328 616957.163638383
 40774.1775184686 -1164594.13351629 1237763.29345603
 278921.719150655 1633947.99344281 -377381.278431040
 1297981.72211187 379387.041675596 1030198.48654138
 298148.552239933 1331166.26193667 -1014447.54614460
 -154131.167621016 858736.959119006 1459045.72176845
 -1558210.88584045 379406.743235156 563940.917504664
 -1697204.19035741 -16999.1402033413 95963.3548058874
 1201725.25939349 744191.332519183 -944476.395437688
 445359.280946823 399056.912230955 -1591354.35766998
 14949.2420957212 1611134.37357365 -542238.462717484
 632240.943169310 1420390.02905876 -687578.035666370
 447460.930644532 1340005.54983065 945602.369904915
 -351933.862762659 1417745.25081838 869563.660707418
 -495611.216617148 -1503901.09637263 -618587.919614076
 -1229293.61242147 -1112081.36113577 -376977.798648947
 -931978.869625858 1275325.43388117 628458.768947263
 1255390.47274538 -1000445.92892614 -559555.809759171
 1068100.05910108 -156829.810988016 1313227.57895718
 213440.452403450 -638468.810065291 -1561025.54490682
 -1047062.84802754 1339272.61469199 -2873.29367390621
 -1005664.71845593 -1314528.96613101 388139.242096840
 -1240265.87032496 -1104533.99020422 362967.264902218
 623401.011068093 1259435.39300310 956657.551190817
 -357521.515026422 1646126.37850699 229011.598563618
 302354.087945743 1523470.31972198 -691100.709324412
 329313.749286038 -1639957.67484868 -303465.449822695
 691377.974144462 1173965.43381866 1016760.37347394
 712204.418934960 1355115.80598223 739206.343334957
 1078820.58811489 727112.986285118 1094281.88499810
 1639603.25029630 -307152.146003814 -327656.437176270
 316903.941369117 1014588.38143101 -1326718.62435481
 1447342.67849219 -222755.783393639 863469.184151780
 -326782.579936472 -1143828.96417562 -1214441.61908384
 1487091.05446266 -295775.758196757 -768815.255181804
 -1237140.69393817 343831.264521946 -1114119.81624035
 -796202.563076806 -14652.2994135083 -1501947.66509084
 551558.795247817 1604497.58087319 106632.116910657
 1215481.81087559 220876.619358613 -1167825.96582337
 715519.469439406 -285783.666332267 -1515374.40420209
 -1677868.27124318 -261849.645646145 -78694.5196975209
 -648629.896129374 -1122264.61536826 1099909.71944953
 721499.769002650 588959.297777763 -1422169.12808929
 -237791.865545958 1376557.79520453 968784.633002515
 -1623245.21927719 307781.411245922 -400431.718255704
 -623699.019812288 -646414.829196705 -1443311.26278422
 1085772.55648469 -860094.762489312 985563.267945370
 1669534.11941793 -98733.3873132138 304807.385620923
 296970.660811058 -9870.05939802860 -1673831.23657820
 -282842.630381569 -1327607.24185877 -1023454.47275537
 882364.444959822 1197623.97609874 822878.969316986
 -279309.618336658 -943660.297418060 -1386178.69705947
 1673460.22273773 253398.532337867 159122.803908145
 -116999.834033259 1399085.50074628 958577.487967308
 -773326.855085811 -1393022.16231918 -592836.259426389
 1138024.79597250 479352.676149001 1168383.74501725
 144438.497749984 1558531.89293658 -663412.284380731
 1524820.33956127 309818.025703243 -684788.816358441
 -344495.057785329 -1496427.37109635 729402.685897957
 137688.496083111 -1266893.20970517 -1125177.08528449
 -565816.957939984 -1563246.03793889 355123.914959144
 -959872.015047137 -524190.024168085 1301487.81526836
 1197323.97451235 680533.540847046 -996639.051934121
 742665.198011960 1482625.62841061 -374525.899827920
 -830636.253030665 551157.662069805 -1377050.70592659
 1099712.85823967 -1063379.26985897 741522.864014676
 499369.520378942 -1310879.12286558 960325.990146923
 -654039.655669454 -36584.5717740395 1568723.58875612
 1659369.81444307 349696.127499889 119182.370033230
 1267092.94349886 1126237.81749624 126743.248248914
 -1460268.43274241 -280109.715617526 824108.397938453
 -192563.682036307 1631507.34720892 -437153.296183296
 950165.752309890 879898.275332966 -1101346.47963457
 160441.870253558 1607542.82662246 529211.174149048
 447273.248811783 1159690.68802554 1159769.00674410
 517582.013991843 -1137097.37165640 1152873.98537926
 1198.84376150247 -590346.670418655 1594204.93397155
 -1486049.50205155 -811620.693831643 -151422.345763705
 -1405014.80922381 834649.512739291 -468287.920777205
 -1254765.32626611 -852585.715074707 -767242.839295917
 1500537.84066924 -747610.726275986 281894.289897465
 -493619.005325149 1422647.47079065 788932.475839841
 1077391.04049291 -1040098.13818592 -804626.875519193
 1578487.12397016 123464.761100968 618978.878659590
 644817.424721568 154654.079727826 -1565341.05050592
 -902656.933298352 -1384556.18230299 397762.037925916
 -1642964.69677853 28280.8194867284 435737.536125350
 1660830.99420994 -361382.691269261 -32294.8776527396
 1374667.89986099 899437.119568424 437379.735509353
 1092138.90807771 471614.549560490 1214418.51192482
 -1520738.45471613 564609.176999446 -508498.799994271
 663203.851145627 401684.591031694 1512881.40353212
 495583.268404514 1013000.62033852 -1272095.50241768
 -825517.194002683 437357.105202920 1420295.78783240
 -837876.773715991 1479175.75061544 1269.19601635645
 -866166.634469498 -1330774.17807271 607285.310465104
 -246427.481555183 1285337.17255339 1084980.11465041
 -55801.6143041106 1328921.47003744 1058703.88037193
 -1303112.77474914 1088623.74085128 82434.5021248044
 768064.063449210 742135.825764268 -1322615.59440189
 697852.543402198 -1148482.53361141 1041148.25921028
 573883.786392722 -55866.1467168798 1599229.93136277
 -1302536.42730082 -923068.948894983 -584245.300486298
 359168.983128969 -1179205.31203202 1170671.80440701
 859694.210911337 1281460.51783321 713291.528731541
 1532448.89183636 494780.892273050 544786.437561544
 1188744.98309858 489728.223839984 -1112228.22834726
 -1424777.26911222 846766.954014329 378147.403812888
 -457499.459401653 1636151.83412700 60839.2992237644
 1640836.62611861 -286690.479683914 -339799.551568742
 279336.933964004 1493820.05891568 -761887.464724772
 940640.722357920 1392709.43692169 256037.996694336
 1320549.92606615 1043193.93423352 -240612.361164310
 1061847.37478680 -123613.142983530 1321816.90999174
 -964762.522529530 1176013.05188906 759095.894409286
 -1659171.61628057 363949.528531394 68485.6803331832
 -1114959.61691626 -275837.905929550 1253307.02635003
 972823.618159038 -277588.166099915 1366220.70617937
 48340.5984110904 286416.566948722 1675001.11543920
 1489554.01309289 729962.426870278 -371999.593328441
 367996.154823069 -230960.168971215 -1643543.80239293
 -1527356.43906420 -212305.923560922 715617.567468869
 -1452021.57077608 -398127.385882185 -789384.534059028
 -1307256.09795799 330952.167486401 -1035158.03488535
 -1055960.44566531 -1030310.72055219 844634.451289753
 -86801.8228456766 1258184.42494801 -1139928.68038703
 -1271399.28048610 770970.157194807 824104.900054874