# OOMMF OVF 2.0
#
# Segment count: 1
#
# Begin: Segment
# Begin: Header
#
# Title: Oxs_TimeDriver::Magnetization
# Desc: Oxs vector field output
# Desc:  MIF source file: /home/martin/PhD/repos/ubermag/oommfc/docs/ipynb/thetaevolve/drive-0/thetaevolve.mif
# Desc:  Iteration: 1019, State id: 2047
# Desc:  Stage: 19, Stage iteration: 50
# Desc:  Stage simulation time: 1e-11 s
# Desc:  Total simulation time: 2e-10 s
# meshunit: m
# meshtype: rectangular
# xbase: 5.0000000000000003e-10
# ybase: 5.0000000000000003e-10
# zbase: 5.0000000000000003e-10
# xnodes: 100
# ynodes: 100
# znodes: 1
# xstepsize: 1.0000000000000001e-09
# ystepsize: 1.0000000000000001e-09
# zstepsize: 1.0000000000000001e-09
# xmin: 0
# ymin: 0
# zmin: 0
# xmax: 1.0000000000000001e-07
# ymax: 1.0000000000000001e-07
# zmax: 1.0000000000000001e-09
# valuedim: 3
# valuelabels: Magnetization_x Magnetization_y Magnetization_z
# valueunits: A/m A/m A/m
#
# End: Header
#
# Begin: Data Text
 -143565.685290471 1616954.00205523 -504825.365096328
 -1618639.03825408 432827.542370525 287520.403459320
 1353756.14310277 1022800.81605387 105937.697214209
 -1127660.02447046 493675.590898948 1172462.05915665
 558002.032015289 842423.815237956 -1367097.59994915
 -461125.619265407 1128152.98064530 1185172.56782218
 490425.466832176 522665.543506100 1541526.38352832
 73154.6916143578 -645933.020369872 1570802.00034589
 1418302.55303225 794973.492795106 496422.213257363
 -1376780.84858069 -622359.944710864 779193.553747036
 -538095.162072235 1589725.06014260 270606.411064211
 487894.388482151 168952.625358798 -1619695.67390668
 1012324.25364977 -1327469.28508473 -320974.925234172
 999738.713587836 -916392.653220927 -1025059.51518751
 -252024.398299534 959902.085980340 -1380243.34375948
 1312787.94257933 200353.970006934 -1061341.65306031
 -782466.620221331 1498803.96873778 177010.314770854
 1694390.85989067 -104320.800445042 90314.9185541749
 -1078200.79668603 1211908.48428961 508685.431020472
 -1630029.88981033 462808.965622245 -137151.083351834
 1573906.91842993 597748.146511402 -235614.442385412
 -57014.5876169178 1540290.75229716 -717114.868892509
 1435653.68270079 -887016.695541395 205182.565483742
 -1394166.75722884 955803.973586629 -180935.947545095
 14001.0495664075 -1631984.69204851 -475846.546199907
 978814.437887048 -423969.325881655 1323696.45572364
 -1671999.10715808 305653.106521833 31546.2222163954
 1221260.54550441 -1132610.36257317 340171.201876547
 168714.850536429 -1571161.44507587 626886.762274961
 -241938.693081713 -191960.060104899 1671710.80157856
 -144239.922053338 1266994.51873675 -1124241.84870387
 503953.477400200 -1016036.20916323 -1266373.29183991
 -492294.365835276 1616839.28926643 -182967.128335339
 -934175.926448798 668263.563590766 1253291.32607726
 -1372911.46562378 357309.575855159 936719.795115362
 1012477.14114241 -1181917.21680334 684077.284587003
 894150.184967904 -576147.188932094 -1326103.26272410
 -365295.571151261 -901193.253295997 1394420.97872596
 -349603.419337747 -532752.679612994 -1576055.84658429
 581250.129932846 -41620.9627240263 -1597002.18594558
 595593.976512052 -1298644.57234206 921298.046165882
 486990.998090371 744989.617509477 1448388.84198340
 1532068.07786823 661655.351666983 -324005.556106042
 233345.685823658 -1667421.76330219 -235062.660100892
 1533595.13356741 -277824.089097059 -678895.972749690
 -1605255.77362936 -484539.081538642 279956.746107832
 1072268.14344505 -756163.099438280 -1080952.54086421
 -1364422.95110065 552409.171976647 850408.206231499
 -1116145.33854794 1245205.77907049 306075.400852730
 744871.849726430 -185252.854630142 -1516854.41204372
 -1443033.96305876 -892779.525652690 102945.131183007
 -303854.728173277 -137509.449342335 1666962.34375834
 -140130.601767354 1672785.67020867 -268610.342304333
 1697329.36920392 94987.4838681986 7098.61579458977
 -963888.535758311 -152991.012856418 1391945.63134444
 -788654.613956557 -883300.233334001 -1219755.95824621
 891248.795502113 1076555.54241818 967834.566754431
 -931869.789055376 -949994.561956352 1057888.94903919
 -480016.868661612 -267478.824020382 -1608738.28962357
 -15422.6079571047 -325296.642454207 1668515.57906177
 339113.843981022 -1665595.39674922 28174.0154789606
 374319.202386728 1493559.09162284 720532.008001955
 1119598.77334674 -956123.872340686 849897.480559110
 -362580.342928253 -518486.663665121 1577880.56408698
 -1385644.12922508 -981690.079701269 79214.4845352643
 707796.288059490 -1441902.22430172 556724.698718280
 -1658812.54793278 -49488.3236355604 368635.099582923
 -514181.976594564 478857.312325299 -1548002.76788444
 -758178.629593972 -71077.6539267127 -1519905.63284017
 -848945.507231601 -1333254.65363478 -625878.226424668
 -382071.284089860 -1402952.89491592 -880763.707540773
 1086290.01721125 -1133464.95438072 652097.535417737
 987922.340566008 1318179.03256746 -420016.055776556
 423533.950447891 -506450.244330412 1566565.39692273
 1488733.06155913 -820077.449882200 -33865.1386457423
 326051.003229981 -1064445.35156406 1284775.01408861
 -1108098.96912771 389468.977051383 -1228995.76505888
 -581376.671226621 -1596771.08856805 -48200.1749650643
 -642660.533910172 -15961.2540427741 1573763.85665819
 -978543.625563546 -321279.335865433 -1352491.02075201
 907162.239417219 -476797.391949741 -1356363.12188347
 -1543010.71579770 -607625.881288807 374043.739850657
 1658707.06666894 -222994.672888771 298268.742656246
 -35849.8675605155 -382666.369346327 1655983.46512494
 -1098819.44534301 -1156152.05260727 -588139.658404432
 -1198742.85750970 -252037.051119672 1178767.52857906
 539102.189819341 -1601991.05689167 -181641.081727373
 959587.492105390 1387953.95631049 206822.774754010
 736288.141625210 -1437484.59023037 -530582.533968397
 5012.72723499092 1579008.62316553 -629846.521411810
 746456.325731154 1199552.09745520 945451.066563879
 144675.358232471 1676675.60538262 -240474.437383985
 -693993.876232084 -1143169.71958913 1049540.60996555
 -535254.793093725 546842.103365585 -1518046.77808587
 164653.019385927 -1256906.66682125 1132729.01177086
 1171971.93735948 -541055.366327065 -1106228.21723664
 -1166705.95064205 629499.770030561 -1064202.64248305
 -324512.451788366 1633542.06618449 340928.125328503
 -1448208.29889238 660153.206531859 597403.102540446
 1160583.07945143 -813489.644504570 -938765.952713910
 154199.453044315 979723.451197965 1380711.58749885
 1671623.92979628 -306700.784038545 40100.7032680303
 -208550.480384811 223965.898116647 -1672227.84739762
 1095018.27940313 -942697.535147059 895687.626910553
 -375124.275861722 836462.239805491 -1431646.84857642
 -995380.341527904 433003.276560218 -1308329.52201955
 1239833.87438736 -1160882.94264321 -71852.3305235503
 1285422.67214036 1093287.77483742 205937.843386253
 -1376232.20902365 -967624.797543533 -244309.553691033
 742507.256977781 -1303599.33610658 799569.724437977
 -919128.801482091 508489.137494094 1336652.92553325
 343961.983676238 1022245.21207393 1314041.43016019
 672768.715443820 -202717.239889229 -1547994.82433623
 -332802.019884746 -655909.192977993 -1532653.23740486
 142158.674624936 -1538899.76853248 708222.008722937
 324867.325785164 1481325.47167578 -768203.142145175
 -1569123.89975357 -136080.958081639 -639790.715835826
 -943870.794200781 1392164.22598294 -246954.837466509
 -275506.408275830 179984.728106068 -1667843.43289397
 1418426.60372784 -848737.861493675 -397127.199149394
 1519171.72068290 361089.867811372 -672109.656560084
 465396.370806904 5838.85734082544 1635044.99197567
 502959.596258734 1383523.78009204 850231.494624303
 -536389.133101423 -1565169.41829636 -390552.672402253
 -1639571.24187126 -235687.734219132 -382436.183914880
 -407412.938638993 -383334.368028164 1605325.34388453
 -122380.070283417 1439078.97144011 -896702.198255538
 316142.337454077 1633800.69634897 -347490.010041596
 1091630.19245489 -403366.004069521 -1239209.17914688
 462102.221157665 429360.003367689 -1578642.30423147
 -1536254.28502604 626832.745518004 370139.812618802
 567542.514042347 -1264346.91982728 -984541.701035447
 -1549468.61654271 -677695.173631509 -172847.499217624
 -952983.635645877 -1342240.66265875 -424514.067725163
 -1293855.70863886 156181.608214181 1091578.99873453
 1132738.45240495 -857436.872529930 -933651.759527783
 1698827.59582869 -18021.1530644181 -60498.2453723340
 934247.362252719 -309780.429704203 -1386080.06676964
 575069.899614879 -1297665.09781297 -935606.703949361
 26263.4299706891 -973798.937160094 -1393207.04212692
 -1133030.43461752 -1132292.03805237 569347.674794266
 302814.018441149 -144958.953634642 -1666520.49852280
 -283264.600653682 -1507699.78890565 -732531.577852014
 -273736.438530279 12038.7553771864 -1677773.35495285
 1505746.79223675 338915.073545622 712645.192639587
 -1661278.47508996 277456.895142398 -230589.461035681
 100116.606323222 728200.731945652 -1532873.23648505
 1696512.17987582 -9173.59231374668 -108453.993642779
 1128586.20391547 545703.309089646 -1148260.02228602
 -1268125.19458412 683849.822564012 902334.700119730
 832731.194953902 -508112.763061831 -1392257.22370700
 -1588122.94083333 390575.047762151 464022.259018332
 1023985.18326943 -80063.3964445488 1354638.03172450
 -1503249.89789791 -523533.257175987 -596785.282241961
 -110248.490913246 1687247.77852206 176182.303662245
 26316.8560636624 401418.958087207 1651717.36177080
 1594970.55226652 401593.091932148 429874.314090758
 1111759.27992264 1156961.75744271 -561632.259864927
 436635.225884221 -364216.906228346 -1602091.04757953
 114673.621857075 837538.829193339 1474916.49595617
 1005229.95859581 1167337.52062098 718912.959468622
 -663168.602244281 -8240.17688255923 1565292.14668774
 -272400.472028226 1008172.46877714 1341412.03812945
 68862.8361577536 1071655.92117448 -1317881.44247045
 -646296.337122254 -1498404.11516979 -476535.572926722
 1014021.67516420 1184729.83752154 -676886.441276069
 278328.615339864 579534.003943656 1573745.06199576
 -1671434.32277405 -308363.751806252 34915.6300935101
 -1592137.24454296 -467892.034297442 369020.377188251
 1044035.77421533 893746.578272240 -1000602.99619042
 1182669.93211874 995949.908121195 -706665.134399334
 1441322.51467573 35436.1691123691 900740.632261850
 1462455.22356026 -730105.071721831 467088.110882068
 590988.703746692 684478.635132984 -1439521.22252167
 -254220.912156207 -214586.072545658 -1667130.63234166
 -1226909.13087233 -467673.145245226 1079803.59964141
 99641.9530353814 494434.343776042 1623455.00735008
 78049.1835738260 1557594.54293408 -676614.783141373
 754050.337885907 -1306120.36962922 784511.101243182
 1628324.10575501 -90174.4484984124 -480030.390137094
 -542564.769998868 1293137.15607423 960947.327347511
 -809600.873906677 -1419803.41832080 467658.719895294
 -1018695.34416590 -1004832.21835973 917917.212345955
 1517289.54521164 -765548.470920554 -42047.2907886603
 861054.821032597 -1100725.63869040 967981.230967899
 804234.837154010 944263.517709924 -1162571.60460332
 296203.151091679 -1552013.63076754 627309.639010204
 1452873.35842015 873639.241961294 -126148.639700303
 1326436.63084436 -782635.985816589 719754.665187499
 122004.404893954 -1686267.40478624 177812.161400607
 719954.561448758 -1490405.74107887 387757.857958112
 -1356546.59465524 -794610.713940945 646819.255912764
 221042.878553308 1437816.61899317 879672.334444995
 -453656.896318531 -1623212.44728728 222208.846345703
 -945553.005973699 1364027.71866044 367910.173303343
 1615879.93245835 -162190.953666064 502619.277811029
 1588648.26160261 264491.904486909 -544280.013750182
 -1400547.75106035 -899986.109593280 344225.216303164
 1157659.94905237 928764.222592676 -828987.612206528
 1027890.89366162 -1333474.24596700 235131.337916160
 1020328.46938595 -462561.533874564 1278658.14115429
 -976197.547624526 1306432.38566262 -479867.450139871
 1444141.84878404 -270953.945574663 855007.766027977
 -152501.578696039 1515286.00175506 755414.853825624
 -972267.793174019 -764160.217919868 -1166513.82319507
 -378068.486473887 -9761.92224778268 1657398.23953369
 780619.748187392 -946872.710047289 1176462.86796803
 -726656.391984170 1131895.09889604 1039607.60534140
 667761.230286166 -1515848.63401145 -382489.030028745
 -18860.3066628916 -866222.777057290 1462635.42598275
 -705937.789118928 -525043.747727152 -1454641.15879708
 -1692440.84215350 136891.622744644 -83094.4007325055
 618992.793341004 -1574584.29049125 -165928.400010578
 1360503.42124266 -534922.863071454 -867691.172797353
 -1569636.27198361 587659.559199527 284426.117216400
 163453.668297040 1272415.90128878 1115455.36552016
 -349549.617686421 -753713.576337621 1483148.98429646
 -886666.603558009 1080011.13180444 968193.311954485
 -409645.320919346 -1634972.32251435 -221486.378048253
 -1374790.52890003 907881.183518947 -419169.128466080
 -1633644.12206857 451212.871830490 -132717.092815082
 705207.066319527 -1403438.16044814 -650418.575542672
 -306584.333623357 -1652169.26175402 257570.916238431
 1202316.39439276 -1123864.70091238 425867.845484385
 -389194.496792645 1085803.14722727 -1248823.11363046
 -895985.745087633 -69634.9344521663 1443038.64137576
 315296.695840219 -1408531.88099612 -898123.562662608
 1303306.99826777 -1046927.03048509 -308763.114872758
 995510.453953043 403203.693211702 -1317719.89354743
 -476326.948717210 -848749.595294458 -1393820.92193124
 1168054.42921727 627798.375504536 -1063728.37232997
 -813817.188006347 1450778.12765780 350634.294978653
 -540443.302307306 1021439.33903240 1246829.06353206
 -1367448.42283136 -307753.413501841 961962.913720686
 180720.443330259 1307220.81323684 -1071687.39229447
 1032866.82067497 871520.568947554 1031328.28364693
 1537542.67301368 -226215.713968781 689049.330175667
 -1608644.51304504 743.164100262004 -549783.846940964
 436915.137556088 -1248629.42622236 1067721.74209668
 -1475802.33869632 266256.342275381 -800696.582543361
 1331850.94237155 860348.614464991 -613166.640394088
 572944.244690950 1339498.20554856 876059.044704014
 -750001.259755223 -1068351.25870655 1089093.06231639
 1280964.47632579 1048720.54831257 -386413.278677631
 -1012403.34256049 664721.534904011 1192973.07304365
 614492.851871988 -1410968.75475543 722195.062363449
 831257.832238210 -1027046.74426692 1069666.02331445
 1560123.82479186 590279.371606022 -327999.870081087
 68586.9538510977 1565950.64899268 -658099.076644880
 1616029.37272201 -128711.904488628 -511744.381642455
 -1045317.43358443 -1041412.00658177 -844258.547834600
 1246496.43408163 348102.677112974 1102302.66533677
 706368.802945508 -1527554.91891148 -240039.754904631
 -1605096.43714340 -704.321132332172 560057.971464829
 705620.573788292 132686.185510678 -1540939.31808534
 227439.183518412 -1636223.93847158 -401301.184863720
 -230069.437377533 -872049.743178791 -1441040.35314997
 -670983.319656450 -396911.218437878 1510709.39277578
 1194845.19639381 -1206189.16885899 -86328.7065923188
 -665253.545045539 1080352.66249154 -1131492.75094973
 738071.670176510 -168909.463119683 1522077.46286169
 567130.335670876 -1209092.08814261 -1051883.78861582
 1310733.62321826 -306507.408594284 1038282.51330838
 -622308.086174626 -1263854.72672923 -951527.128150251
 -1016664.53917992 -1337857.22378988 -257936.549421242
 239801.388196051 1311922.70471782 1054207.81208694
 -329410.191390135 1620993.77854571 392260.239795489
 36822.6010003733 1315871.84742843 1075697.62349875
 43451.5948964002 1614148.54325962 531635.626339896
 -1600158.91203179 271814.587978593 -505577.181058705
 1602948.18227517 92153.5141402536 558627.653068075
 -1060239.14489060 -910117.164531347 -968286.993854128
 914217.918627038 1416815.44187623 216424.584838007
 682164.232501282 -563183.805348825 1451714.83470024
 1605345.73716275 530897.159193678 176105.850366915
 1363881.25048207 909510.064125899 -450132.622498268
 299917.574142862 1461807.70098405 -814351.087715856
 1139588.17467142 1257262.96686916 -103095.219522565
 1446088.72500433 -370069.173713865 813557.746003374
 -882458.192241748 -1258270.27580288 -726652.222164338
 -1163128.95846524 385064.852783133 1178497.38443947
 -746344.214018175 -1386423.42941878 -640937.117477425
 834649.320784980 -1457806.27482987 -261077.337928481
 86673.3943019958 1275897.83041401 -1120076.98354398
 -1382815.64669714 -986706.758138150 -65043.5292251942
 -1129715.84921881 1015965.18876530 -762598.738027348
 395040.322774062 864504.248504953 1409459.31040930
 -678813.126744292 959683.278785743 1228096.39010083
 1507449.25029987 -661200.770949954 -424747.334618546
 -379406.669801477 1413640.92694080 864679.078380021
 190371.235405785 1346718.22095235 -1019857.25770081
 1092289.04188499 1297672.36056991 113802.871628431
 -1351976.76013326 -978202.953421288 -324465.440343738
 -1679283.89209334 86354.7439369115 250096.917125027
 -929764.617190944 1243298.37304396 692637.648562383
 1275816.15307927 774153.714886421 814235.327942454
 -1694880.91436602 87239.1076229077 -98833.3153292051
 -559173.230083426 -1580376.76559568 282373.117565066
 1004310.13360635 192282.930083034 1358082.63015705
 -1034763.58237667 592650.513255114 -1211622.75388235
 764981.499666625 -1417435.81893677 -543763.739470405
 -939562.163277012 1280218.10939789 606848.031806912
 1010003.44345221 -1366318.71112256 55373.4941200754
 -1369311.75012914 -342567.604876873 -947434.835251059
 -1640701.69471710 136041.810055340 -423781.281877004
 646591.130729981 288632.059708578 -1545513.32694665
 -601019.340038973 -1503805.08108210 517055.152774607
 610238.672914221 673598.385625248 1436618.93937222
 -780472.038176547 1397608.12075540 -572324.155023286
 1042110.10767791 997804.205609825 -899106.940659946
 970615.188271748 1358630.59801730 319419.871685137
 1128116.74958748 935964.307328987 861001.402267353
 885090.857466457 1317098.24881938 -609808.475659541
 -54634.2234060475 1697104.14118976 -82780.6474327339
 -935049.895236590 1227051.06398035 714162.012293248
 1024946.37407004 771449.585357331 -1115504.57979009
 -1685259.01320439 -95413.3007931546 201986.040223370
 806678.236371782 1073628.06396685 1042397.71835270
 840891.920779629 1234418.50338204 811856.967744683
 -1165400.78221175 -1218523.02233049 -216893.201532002
 995035.495905222 -1257921.26119559 -563505.512413795
 526835.476213040 1590423.28547376 -288094.002065700
 87886.4579827355 1695262.00895441 -91447.7528379774
 -859194.860197723 -1434945.42667889 304492.716929591
 -164221.975379748 -287127.789483770 -1667509.75268768
 -375567.324112788 1490034.03981125 -727150.428221378
 522690.197521436 1518322.95450002 558113.217235834
 1467738.68625130 -563855.154458273 -646382.637198851
 -635643.804652505 -85067.1973985556 1574395.28884383
 1509069.83089699 -240159.688430962 745004.409067000
 296172.004130780 933021.800087333 1389874.98161919
 263201.596583968 -90668.1574801626 -1677052.23674601
 793723.056305252 -1503291.96759701 -10815.2691947443
 -1168750.13405893 649938.271929626 -1049572.94497256
 -855334.687713332 -1398051.01145451 451504.087872266
 970700.662115822 -734948.367012404 1186419.45465915
 -1680967.40969997 136400.987732972 -213876.922719713
 889531.001066235 -763072.884209962 1231444.01883544
 -974794.791528934 -562220.157435171 1274238.44274988
 -555738.358868946 963618.511039834 1285532.66845422
 -981791.647007640 -1350050.01821466 -321636.612008999
 -23839.7027793611 133535.751102103 1694579.55604008
 -168315.815767883 1525531.77488871 731042.125986801
 1198649.50876215 -981096.814521074 -700491.538621885
 1473399.97903093 -215067.866653450 820267.221413115
 -1395483.09352983 963631.736419418 118493.933337151
 -228838.606055210 -1676081.35236341 168476.089218489
 1225436.06253711 -943938.970837842 705184.852338126
 459554.202947889 1158055.70665257 -1156597.12728433
 -1068551.98844641 -188216.735078071 -1308728.81401144
 492105.063301662 -1385965.57709243 852603.088070706
 41757.7498895073 1654696.94862679 387600.694696679
 -319947.179237230 -330316.720649023 -1636619.89067646
 -1012967.95542580 145572.897293515 -1357462.50513745
 834125.376245707 1101063.49704011 -990905.662608079
 266977.392901274 1296197.45572625 -1067049.77739955
 -367690.465618917 1427868.23379380 -846165.485242398
 -557097.961304412 1462057.33994998 -664853.514850345
 -348.839011212832 -1699886.59180486 19632.9649670308
 -1189729.82325904 -1187765.43683064 252499.930135694
 -481283.651052987 1583804.71476225 -387206.240556602
 264168.095370514 958600.787151994 -1378876.26285316
 -1198139.20309766 957903.773867479 -732722.873950958
 -1646466.22602086 255222.809444611 337654.089434456
 141412.094593710 -501343.632440461 1618226.55450775
 -359944.420891807 76200.4945730201 -1659708.85955811
 -1061468.09134877 -1327718.80526438 -21172.2742219274
 58438.6267301345 -1157411.14556460 -1243778.26280601
 -572827.267921358 -965803.359322814 -1276359.19405413
 -1264718.85143332 886920.605792220 -709829.603391090
 267882.059627506 -914344.826611085 -1407910.77138406
 -1014667.67238523 -1115306.28090635 785201.511961855
 143101.305426574 -1125827.11286911 -1265715.34252928
 152405.385617704 -1090336.43693635 1295352.86803391
 -711782.921972415 -1071601.15929986 1111321.74790904
 220471.253526911 1622583.08174205 456745.628564446
 -1155958.86434494 1240324.10915943 -123916.133655877
 -28177.6684207416 1684325.64539465 228589.455724142
 674475.103608193 -1400470.71701001 -688305.967873429
 138158.946943627 1491383.84694379 -804168.095894493
 -1116854.15044939 -1140719.27835165 -584291.309725598
 -645372.854256901 -1260636.40555283 940366.807146632
 1354640.84018732 311514.227498815 -978727.275681233
 1002985.18491624 1190219.59909890 -683665.140810459
 1428030.87590592 893029.181032288 -230709.122672196
 879483.760369392 1053941.85156558 -1002853.37351232
 525629.630052343 -1579761.53562434 343608.763818494
 -397277.485771006 1576923.05465559 495463.700986425
 984566.981929670 -1381310.15815945 112294.724094336
 1430464.33138768 -676574.591547720 -621303.966428373
 -771758.978332459 -427316.031884390 -1453199.60372201
 -589172.369695969 -646673.860807134 1457631.24161622
 -473433.685751805 -1629378.87681527 104809.450831797
 1031076.20955606 981269.302264044 -929511.918439858
 1141568.27068155 101498.902470444 1255595.41898274
 -386185.755490160 -1638988.77367999 233615.842800645
 -183969.046071522 751291.885073934 -1513841.43605253
 212195.748066437 729205.554195993 -1520931.36736417
 758964.051881433 269974.191636674 1497026.22014507
 -436500.209049382 -259419.962994084 1622396.02141401
 -1032914.09525996 -1010284.18470209 895775.830190860
 -1571024.84226687 542330.522780351 357433.279146099
 1566636.59351748 446281.051253062 486295.185195591
 -753915.438039455 751823.335195583 1325282.30386630
 -153768.989527488 -1687924.88276592 -131395.159725799
 737492.141287424 616076.053860198 1402339.34459507
 338791.735678157 1665110.07411221 51269.8832281033
 1398978.95357925 463281.765737898 847483.270027837
 -1582342.23677632 -187985.571109859 -592329.697692274
 389687.185848716 1620658.00451493 -334083.117782065
 272379.944480713 1555978.07668511 -628284.482316726
 685910.575360035 1552332.68821795 -98943.9624197118
 -1508287.86492022 -502860.870801790 601829.428618164
 624409.492125155 -29965.9214706079 1580890.51793425
 947829.941295780 -1056812.71346911 -935288.881059379
 -45242.2712192518 847450.339207447 -1473017.67113369
 560750.852095190 -831916.068043377 -1372397.22296636
 -116666.241645129 -1165886.27179929 1231705.39874207
 -1577827.72052063 -394911.931990676 494473.710451899
 107392.279565326 219319.426093487 -1682369.12942071
 -1100890.78932638 937553.453727832 893886.453292231
 -1069275.10710987 -649583.033854571 1150952.92147137
 1345018.89956424 -868602.669293478 -571361.149109074
 -659872.411177331 -1501749.86705913 -446447.911580854
 588763.754322044 -1031641.51552461 -1216171.46202446
 -1633526.34966794 407450.241728201 235745.552357148
 239122.147580004 1677338.56394209 139125.628298373
 -971059.996309895 814244.417334341 -1133158.64397113
 -1490554.87700836 243683.941527644 780297.568411014
 992692.348877854 -296206.284512840 1347896.04105601
 -1526541.32060575 -684155.549369853 302659.512901352
 158872.643665711 1692556.10160412 3650.48179593090
 962444.122694073 -1324597.37781558 457321.656359853
 361251.696217505 656305.507597393 1526027.61858274
 493855.785875885 1217980.28587725 -1078253.44236468
 1426748.68366009 -724430.162700893 -574098.539488959
 635474.729235565 863550.244501045 -1319262.23463160
 1211767.85236197 -930944.670315714 -744956.839550339
 -309961.538182483 -904152.669896082 1405856.24953881
 413726.871685551 -696161.099892383 1494720.64234154
 563522.243810983 1125384.87511790 1142782.37805197
 -1449437.17747792 -552209.754531963 695842.119697118
 664108.465487352 1392519.98636695 -714036.437191140
 1651187.09522453 400694.279991303 55002.4594561288
 109472.016447068 -246610.595682136 1678451.39688712
 851740.893080621 -343177.162439975 1430652.60850909
 -979106.320003924 -113289.415135871 1385105.16660164
 1184449.11075908 -303232.704249061 -1181156.31103416
 200308.819538197 -1531798.28487990 709556.475028046
 1570327.43037990 615757.840553102 -211929.335378209
 -1231169.36039793 590417.454553933 -1012733.54608969
 912029.315922682 139135.744496765 -1427880.86740489
 1090924.29290524 -598801.107451639 1158154.31651568
 -817712.179770135 -1488159.05913110 -82032.9554607526
 789892.983922126 570754.616904942 1392949.47547723
 1297927.19470919 -937113.857121746 572016.272517424
 -413220.029587013 -1623400.26730719 289518.184670741
 -907589.791096335 1241736.00068554 724135.674925076
 -1258082.94346189 -518506.518735445 -1019008.48740289
 595992.662048017 1306554.77919541 -909784.235819981
 -1391014.19871013 253028.144410829 -943957.762361662
 -529513.096823390 -1565465.73140595 -398663.923732927
 -896122.592517808 -1439449.82012915 122264.117832365
 -392224.147106726 -1350309.25500794 955418.826623331
 384012.339532766 -1541919.03565604 -604169.024833386
 683968.746514250 -1553461.78057189 94568.7585524295
 469757.790686817 133156.603388839 1628372.48105677
 1283065.07599849 158564.067694489 -1103902.82506622
 1439920.99598320 497163.755808438 754622.902672063
 -936496.465632245 1414394.63918200 111634.109982254
 -1691235.62739736 -137466.355021008 -104043.519063360
 1080857.54667888 -1144992.77268621 640888.847058261
 1000365.92808207 -1325535.89032720 -363624.275024341
 1049678.52051857 489733.444100206 -1244321.56506737
 473787.372025475 1532409.21892670 -563247.291922167
 -1478646.58253926 -767140.456491775 -339263.620151898
 1668649.16166998 -35386.6799119608 -323044.514181702
 384367.444598354 1628892.89124324 298277.750410856
 -1059032.14978512 1243752.50525362 470670.385085841
 -1233692.13297283 -452811.854892050 1078408.61694915
 1358789.78021998 255843.250162143 -989057.412143606
 -146675.962434526 -414879.140015327 1642060.12716467
 -531731.278554560 1416283.21960027 -775502.217460037
 -679452.648889433 -327817.013707247 -1523443.50188683
 544364.719249489 1448787.33979203 -703336.545684033
 -393689.255395257 1576530.37370704 499560.557856060
 -489677.473350813 -1423502.40804004 789846.102982716
 -1288124.07709822 1081028.80250495 249224.978994051
 721858.556162320 644428.109673699 1397724.09164242
 507729.011235780 788750.107764228 -1417774.49499258
 -1282800.79680004 101504.931365743 1110909.02626526
 533774.882622652 1603732.69162041 182005.023307422
 473686.123453309 366285.064703271 -1591055.21834508
 829933.731703986 -1470229.72289487 -199084.311025204
 639463.129820526 -1360798.55430001 793293.262428929
 -98674.4412653223 -1693749.22146834 -107130.431794035
 1495134.99618022 561161.281745698 582811.598260284
 -919542.964485337 -221758.541202768 1412538.10067875
 918561.554029662 930605.325786863 1086378.57079185
 -1220175.98782327 898903.082305882 770158.300195811
 -1036647.16527754 1334524.65373397 185490.170354820
 186244.275966909 -1569652.93213182 -625701.799837233
 -223255.310875648 -1559966.41877539 637700.430028797
 -972610.440625362 1014609.16151171 -956345.743004608
 -551164.698578833 -472165.332308277 -1537295.47387830
 260051.764737681 -769465.740943384 -1493417.40754930
 -1521502.69075121 417883.762863052 632773.832243588
 1162537.40709893 -1109578.58715024 -554384.465901931
 -806743.528401359 1446751.06077187 -382199.224931187
 -1015012.71594208 523065.594876657 1259425.09500653
 -1533527.62022293 718940.451252604 -146347.755589591
 1691740.13591039 -101023.320647005 -133452.617941202
 -1070177.22002898 -1269766.01946917 -363888.682885956
 584622.193972380 872689.110062609 1336649.02180530
 -947601.788946986 1263237.18440224 -629509.861342907
 -95793.8986722458 1663225.16897192 338386.711139042
 -1453471.51928871 -761534.853207457 444393.080466912
 1499714.33577133 -52260.9927436418 798827.703400048
 -104960.220176960 -1696427.28461418 -33433.8181630185
 608207.332111213 68031.7482314889 1586018.76483184
 -498856.755433448 1263103.65256778 1022600.16645233
 -776758.811038952 -562299.504256589 -1403732.53042955
 645143.418054391 691908.979822841 -1412463.07342232
 1165650.12167721 -775629.093899836 964188.416508939
 935518.534208125 807460.904544598 1167395.37423493
 477574.098955395 -509613.250963278 -1549908.80843022
 -931276.622743856 -1116822.37101033 -880585.966014483
 1338938.60114192 455156.777111229 -943438.249501171
 978018.908739496 -172630.243404406 -1379738.31330805
 1640734.40677212 401397.909203446 -192016.470442607
 775345.707254440 85372.1375123325 1510480.26547145
 469431.120814905 -1232059.87056681 -1073155.57965719
 -1101383.56879022 45301.2555139206 1294180.06113825
 1114670.88904550 1106679.01258636 650207.945364719
 628575.865092297 1474534.94908399 -566250.002872718
 187415.117133795 1203694.47193270 -1185746.68125548
 1002904.97544255 1293043.53792660 460673.441017426
 -1085414.80477456 1216196.09463914 482433.167351412
 -394211.426420228 -1143287.42331715 -1194776.63978024
 -640154.658235117 -1403616.60573319 -714186.556615230
 -495144.848597970 1064407.73505715 -1229580.31557821
 910737.213577398 670101.100139628 1269457.46025495
 -1416665.87150715 -763652.313179993 547624.828766679