# OOMMF OVF 2.0
#
# Segment count: 1
#
# Begin: Segment
# Begin: Header
#
# Title: Oxs_TimeDriver::Magnetization
# Desc: Oxs vector field output
# Desc:  MIF source file: /home/martin/PhD/repos/ubermag/oommfc/docs/ipynb/thetaevolve/drive-0/thetaevolve.mif
# Desc:  Iteration: 2243, State id: 4495
# Desc:  Stage: 43, Stage iteration: 50
# Desc:  Stage simulation time: 1e-11 s
# Desc:  Total simulation time: 4.4e-10 s
# meshunit: m
# meshtype: rectangular
# xbase: 5.0000000000000003e-10
# ybase: 5.0000000000000003e-10
# zbase: 5.0000000000000003e-10
# xnodes: 100
# ynodes: 100
# znodes: 1
# xstepsize: 1.0000000000000001e-09
# ystepsize: 1.0000000000000001e-09
# zstepsize: 1.0000000000000001e-09
# xmin: 0
# ymin: 0
# zmin: 0
# xmax: 1.0000000000000001e-07
# ymax: 1.0000000000000001e-07
# zmax: 1.0000000000000001e-09
# valuedim: 3
# valuelabels: Magnetization_x Magnetization_y Magnetization_z
# valueunits: A/m A/m A/m
#
# End: Header
#
# Begin: Data Text
 -585933.018543582 -1558112.54988037 344917.062039131
 -412897.864393855 -1095707.55797533 1232452.96095824
 -298935.608204172 1571172.13181410 -576242.687032407
 -1686596.63300299 4798.89179891269 212999.455822007
 934210.628838471 88791.1863818810 -1417521.29655470
 -425406.523354196 -162947.288326525 -1637827.05775510
 978158.102501670 -787894.186580482 -1145613.14467974
 -518883.622705826 -1610330.47267633 166119.098413467
 934613.234907987 -483850.053116162 -1335060.75788120
 739813.059541756 -1528207.59684571 -85194.9404279703
 896447.900999044 1434902.03852276 -165642.085949320
 841242.479585872 480032.024789853 1397097.11391741
 171173.060155355 173965.275708254 -1682389.92695653
 1037667.20926372 -407740.932886225 -1283352.67735254
 -874846.716802427 -729323.602780455 -1262034.19308961
 -1156682.53258928 1200253.63494748 -333881.312142829
 959101.794519417 440438.507274199 -1332718.15064541
 1265737.23092650 -792589.688458274 812225.860211395
 -23839.8810787789 1151004.41428318 1250847.91176657
 166334.501491724 89778.2276230884 -1689459.29322324
 1197023.06537972 -423020.972841736 1130570.22669313
 865330.139917874 -342560.003645871 1422623.06773504
 354963.801519147 -589085.884783220 -1554663.47482671
 1245835.96115867 -7156.31411590327 1156651.00399910
 -1509386.48354222 689941.441409995 368419.938012506
 -906267.491581604 -1391411.50179362 -364215.961180723
 914305.646612606 -1429662.02119319 100556.897973707
 1387541.85310655 761514.432241393 -620341.337785656
 315839.240697570 131748.001637049 1665199.09863662
 730854.140259619 -1035762.93516905 1132716.80829560
 981408.774855613 1048868.78658739 -909236.539718410
 -934729.171328206 -106490.627256300 1415959.43535634
 -1455411.65160968 -506396.764050893 717871.326713617
 -1058020.65010687 -1313116.34355519 -215215.641243070
 741187.606486905 1360605.14623670 699567.414924692
 1273120.73150676 -780634.800899040 -812264.064595381
 1650904.79651564 131921.328365184 -383549.365745836
 910319.430515714 -950081.077840423 1076412.78325516
 1362489.06276290 226296.577061641 991167.701784955
 154487.913996215 1692857.72616710 -19136.4412956832
 -1005237.12327924 -1338043.69379537 -298558.871038378
 182617.515168075 1517905.88608210 743379.152351710
 1461101.38561044 589873.676414030 -638147.151400876
 -657716.156884031 -58051.5890537597 -1566537.41416604
 -170021.083178135 1431862.19198174 -900479.591355731
 -1683020.57700136 -109005.524101991 213446.792211209
 1343621.06232939 -776984.226093052 693525.740883078
 -932786.624276883 -1374966.96503445 -359687.306745848
 -1042150.43509777 928963.703604169 -970025.209987634
 1562321.47669430 668046.672216740 -53528.0038846389
 997241.148632287 1021887.06640702 922635.851777183
 907904.755207506 616376.684777713 1298379.27353067
 750541.599665622 944949.882182461 -1197395.93591039
 659955.668141941 -864311.758686473 1306684.23878289
 697943.142307562 -1550118.54909298 2802.47457003899
 -539227.083600545 596527.398083984 1497794.78422339
 1414948.69831856 237887.315375904 911772.891848544
 -837918.782753361 169262.446476138 1469436.06112074
 -1165913.39057297 566739.664290650 -1099750.93480404
 -625705.865700687 1507471.35059532 -475418.023177568
 626611.822300111 -999045.615020443 -1224444.96947072
 1503962.23357661 -734846.616065432 296813.158118769
 -1091828.35036232 1300168.25422459 -86448.6208778430
 -320824.341677164 -211635.841190428 1655983.69934943
 -1690603.83028770 -40333.4736393544 -173873.229453921
 864804.750330546 -1254894.73091683 753227.693412089
 -89332.3773199006 -1527136.14762415 -741535.510263708
 -1231305.09764006 1159399.78409668 172278.545275290
 -1091649.09528675 863249.620621115 976269.606849015
 -89848.4876933711 -973393.308533787 1390838.85341216
 875859.560359794 -276131.908818859 1430601.69140764
 -1378181.84800704 -395823.452682209 913202.380707938
 892932.337911356 197085.701847742 1433118.65037035
 996588.127797133 -23160.4967699615 1377053.26510022
 1680278.55833673 179706.829177141 185389.918660490
 388774.366609897 1634688.63015660 258161.914897993
 -1073564.18491716 -1144433.69929505 -654011.810887994
 628472.491558411 -1157150.92263413 -1075185.59774643
 -228108.119244369 828555.938523292 1466786.19528293
 945505.583487048 -1081260.15317134 909338.040971951
 316715.816232447 -1521629.50445444 -688719.640290551
 565396.660975132 -1553024.06485522 -398048.828334843
 1564361.46228271 246337.806831548 -618135.017815792
 -773798.576406313 -1251495.55013449 -851466.177334801
 134700.847815353 552410.192756812 1602091.96381987
 84385.1755642674 -6218.25368277383 1697892.95170989
 652818.680965986 1568508.16696154 -60082.4429993929
 -854490.253307194 -598039.343711615 1342458.69596647
 305429.907978426 -412815.451991775 -1620585.07148163
 146023.560129833 -1189346.51017855 1205873.95635411
 1137126.59419638 131803.985335850 -1256809.77805749
 1094687.57920983 907211.181372952 -932001.596734482
 812080.115486895 1000435.21877327 -1108898.21853444
 -149001.924643997 163996.293866652 -1685498.03976462
 -312256.290557850 -1616138.61094142 424961.173792850
 183425.850779096 -1303920.93214453 1075241.90765674
 536234.380472528 1143883.10666866 -1137534.23134308
 608277.713182413 -1382973.38694617 779347.698170857
 -1280614.23114917 -848951.245397405 -727536.235466265
 -1195341.12711279 -558419.966414185 1072066.57020108
 -318177.013394669 -1371670.85146788 -952513.760205406
 -1012086.05096021 637793.503197023 -1207849.85521026
 -1266349.73483743 279405.984558655 -1099222.74579359
 1562838.66188470 -618464.088153128 -255024.486242722
 -1692288.75914620 158820.079962167 -30576.7537228625
 -884682.573237995 423987.078821898 1388370.16015221
 1189684.60414878 1182016.51662651 278365.761316821
 -793125.086221341 1434021.72390980 452254.677102562
 -1537773.10771749 -652910.887535182 -314581.058105698
 880811.077956259 -764977.013373170 -1236520.12274779
 -317504.753992303 -1669933.64512404 -22635.1954936959
 -100276.592610708 247475.470294222 1678898.59627586
 28282.5360489687 -1128706.78687461 1270913.48541820
 -380715.457675081 311059.442638113 -1627359.13781590
 -1473563.62823520 188343.925552855 -826520.900673219
 788061.383984801 251151.045007585 1485221.33288731
 990706.872813753 844769.230520277 1093098.73265217
 95433.2923065556 1694747.82453205 -93393.2436711057
 461123.518161995 -1583543.61847168 -412012.996634218
 -1515633.88233898 521522.718895886 566452.105990884
 -1317290.79758451 -970380.201644386 461635.374354871
 -152370.861837243 967405.694891905 1389571.63973423
 -193067.084675683 853689.705111167 1457374.00422885
 -674377.045033833 -1559596.40317796 53615.8589020388
 -1649321.75116477 411724.521475077 -14855.2869673782
 870823.509973463 -198406.982883228 1446478.85695598
 196057.847749770 1454710.51119569 857542.214093573
 -496968.604089840 -1546823.24717668 500359.919001109
 -1087383.34794244 -410902.238421663 1240466.36595981
 -592177.119507983 1292056.54893083 932692.947060377
 -1635009.65597406 129196.896262293 -447271.267652841
 1219630.63764285 1128599.63775849 -358836.962107160
 188389.338326367 1453125.31817242 -861937.507532449
 -673956.462244913 532955.240487679 -1466881.52167619
 1222360.91993788 17700.2601138139 -1181321.49823853
 1145434.28845044 1134081.47630341 -540221.709992770
 -876544.414671700 -639318.225051043 -1308794.13821480
 -1273458.99955781 362644.449730458 1066204.09843750
 1540874.08249214 250333.301649756 673082.684362885
 -793540.001379722 1139938.96445977 980221.109503703
 84902.4062709357 -1680676.98730883 -241073.527663070
 1050715.73434522 674941.127998356 -1153451.74122531
 -553659.043933635 869853.489402068 -1351597.78412275
 -151017.084776675 -618156.725527912 1576412.41519793
 -1531714.30706371 -444963.883614168 588097.291113743
 -470428.135302248 -838587.079716007 -1401951.88193084
 765039.823041489 -1353346.86655155 -687870.865755886
 1117889.43426912 1246740.01463753 293193.704999048
 -127322.677598228 -1621887.00665140 -493225.580667297
 -454048.582242631 828665.838725936 -1413206.57113251
 -1150602.57707442 518777.551912334 -1138851.86098173
 -1102024.42694668 -800815.915210402 -1016973.95854494
 -654431.124054787 -1123512.19177700 1095189.59947437
 1135659.19901643 -700177.454990315 -1053579.47740673
 -1608158.08545780 -150835.869748308 -530166.117904552
 752810.884019264 275496.079907770 1499125.63945041
 490044.335005713 -1046786.13755164 -1246633.59972308
 453376.330667452 1599150.12736746 356607.309138736
 11962.2663377995 1276899.47515288 -1122223.07699422
 -239963.545547305 1273467.64703104 -1100317.06738266
 1576090.91101814 42889.1920768398 -635686.996413338
 -1699285.11517139 -49289.0569863737 -828.382963509562
 -1285846.94498553 -443934.115417377 -1019568.60251774
 -93095.8162478601 1576518.62926575 -629223.474272196
 -1571292.53268304 522745.695582949 -384417.370164269
 565996.121596829 -628486.777099896 -1474670.39074769
 1261395.95002936 -580279.926986524 980895.235785174
 -300506.387694672 1393205.12360897 926647.394915901
 1668288.86852925 217551.332378451 243892.740608965
 1025388.96478091 1347262.86572150 153167.364518066
 303026.525751709 1438448.95831505 853838.110541562
 -766166.597916833 -1504895.28234067 -195650.027920653
 -603632.469582543 -742834.239663301 1404928.87152679
 -366573.084949474 1044239.10983460 -1290421.96776189
 -602063.430419714 -1384106.57132346 -782156.394188831
 342539.822068657 -930785.711962326 -1380689.83798098
 145609.467730266 36044.4219934830 -1693369.03318517
 -1305920.38033661 1010962.59842194 -403145.860469193
 -190468.720212082 -1689273.01920758 -8850.60439153831
 -998850.297350102 -1322490.25733048 -378573.114139876
 -1215001.72441004 981141.914243079 -671663.125231737
 -1520326.08575790 36805.4517958854 759772.302523692
 87967.2991535372 -1688442.71040605 177265.247457881
 1467210.69154613 -72769.6298311067 855568.447049655
 1427892.62955111 -708866.808618710 590449.393354203
 -1127201.21256833 -30315.8367065510 -1272202.17592538
 -71829.6551070065 772777.616415494 -1512499.67147580
 805283.989958973 -161302.379898835 1488455.31936794
 -451726.238703564 -227393.250576154 -1623032.87547084
 -580574.341775487 -1023186.80543546 1227200.95944174
 607195.443324037 -466680.853316072 -1517736.03592809
 -796460.418328631 -807929.595029685 -1266057.09646562
 -14681.2601581726 464916.397394094 -1635126.05142058
 1437729.08747419 -33471.2409737073 -906539.986464097
 18168.2308801447 1315511.92487253 1076614.27210717
 870118.687134823 1424456.39094485 322207.170303726
 -109635.061336699 -1669637.57626933 300483.805279386
 -1291744.74022680 854428.891615797 700961.336500516
 1570953.04168043 455449.274835658 -463327.636653242
 -1005742.35592705 -655388.994753628 -1203722.38454311
 632381.107192540 -1451876.25299460 618182.401283228
 251749.270517756 -679714.739133373 -1537728.90269990
 -427427.271071462 -439848.443327545 -1585509.15318920
 -575374.004850502 1599572.03229712 17721.9647656026
 285302.340138646 -1517076.06487441 -712097.456881137
 1012528.02969146 1303869.71855918 405845.717130945
 307476.848325157 457263.625342169 -1608218.87959412
 1247610.70959768 67346.8410995442 -1152793.09517844
 -915362.691232431 -1079285.55867203 941941.519597537
 178321.887643901 -1322679.97638021 -1052957.25671556
 455725.807286595 -710217.072366397 1475772.91569275
 1079277.09180009 710411.865405147 1104751.52890010
 -1450298.01195064 881144.734286406 101092.204305613
 -569935.260019726 -1349618.21654548 -862383.017547802
 -1499722.65397890 776686.304184014 193882.299438215
 1078185.36254823 -315467.126017556 -1275929.78505440
 906791.424871417 -716202.778082866 -1246909.33609708
 179763.355730980 -936341.827898935 -1407461.94167488
 1424095.77147077 -893076.407668860 253704.086968186
 1027023.50768670 -711058.382530863 -1153090.92932496
 872649.029851531 1229871.45365435 -784792.888719899
 264313.300211854 -821403.384745160 1464730.33656722
 886913.294487360 -52557.3587580915 1449352.45268428
 1295143.81475648 250702.309069876 -1072264.35701513
 -975266.915568070 393981.100420798 -1335527.36247130
 217229.347237139 1681885.10922242 118633.427307916
 -1614798.50056655 169623.224705891 503640.510888872
 594165.769313473 820223.999203747 1365356.96054414
 40058.3034497763 -150648.416039531 -1692837.96834473
 1352541.15435358 597080.016921760 -839123.280080220
 200899.875652814 -1688026.35265343 -14362.1972641672
 1632779.31912080 270870.751737570 388150.397274728
 -1214987.84395095 -291151.934709348 1152837.84200833
 -620686.391943232 873520.113975054 -1319738.99439908
 399866.864748877 -889330.045899964 1392551.09778258
 -623479.992798217 -1571137.85228118 181103.693252276
 1146728.15445287 603468.698100370 1100381.78383603
 653075.227217011 -1550995.26791801 -240637.541733163
 -1323899.49866768 -1014687.82942697 328174.840961738
 -1097893.62986214 225587.774612846 1278178.28703720
 1165026.87788636 244655.373703467 -1213612.83856112
 -915230.090598776 -303597.552400364 1400065.14399833
 -104542.100489781 -1659049.05424011 355847.136914414
 -1585201.02369944 -64186.2009426646 -610751.869477933
 590767.069116868 1082748.07518786 -1169893.53178999
 1289926.21995496 940363.408692233 -584642.631583978
 800865.836636047 -807610.088384437 1263479.26648953
 1066517.75241779 -563878.294901600 1197740.01866706
 808531.146655897 -1488121.24278840 147555.249480301
 -633411.239524103 1102909.54822394 -1127998.55056689
 -163137.448254647 -1248732.51863002 -1141951.51818845
 -1307105.22220069 -787844.979344248 748849.935980324
 1232735.71422140 1168109.56890664 76698.7217091121
 13843.8405193035 505168.372855200 1623149.18080456
 1034691.39527072 -1101527.23781135 -778493.070561598
 -380851.347605105 1283599.77146544 1047532.28003782
 1265475.59100160 783403.685104184 -821492.662623550
 -425660.039696452 627804.696058771 1521405.53246403
 1099637.33492923 1288029.29053252 147574.653514919
 -1668901.59180839 8818.66008712023 -323557.889864682
 -244248.366818214 584781.995608232 -1577457.68657010
 -1334614.72412615 1003355.93179866 -319500.253943748
 -719847.526653338 -1485439.25130849 406558.444806073
 -166457.588153587 321646.948234594 -1660974.14550542
 -168270.224562615 1083346.91036123 1299247.70668892
 -387647.723792850 646156.307669220 1523880.33266970
 298694.538699828 1665965.30622652 159189.104528146
 719494.573966048 -1052011.78249237 -1124988.34106431
 1437322.96691318 -105459.117989425 901654.625240055
 -1019744.25722422 1315550.43432249 -345613.519139707
 -1329415.05637058 -955330.977903150 458255.747976832
 666769.920257466 -1247705.63331144 942681.561314718
 113778.799681345 -490914.583955894 -1623593.93199238
 555214.055287837 1206913.35865216 -1060706.13155473
 1409271.94009505 507423.212742979 804036.244226791
 358637.644275797 -1576247.48130169 526139.637167157
 -400514.922067212 1056411.49969085 -1270268.68831851
 -884527.082586450 1369517.10321660 481699.848628080
 -523794.674701244 -1614386.65694937 -96927.0891879013
 -8136.43298560621 1060201.79737048 1328873.93958595
 277827.508004204 -1522778.21984954 702821.719177798
 844661.772781430 1120413.74982010 -959801.812259073
 -161308.326896980 19037.3054997591 -1692222.56357520
 324722.754149212 457371.011919310 -1604794.96833510
 1681117.34331692 84349.9042900703 -238179.704520171
 -1395637.21330591 -970531.113430025 -16313.3902050265
 103421.215615494 -264643.153932660 1676087.12578946
 1446447.90245209 615396.145228539 647360.834411390
 -48332.2402983154 1684388.69909635 -224719.168973780
 -1401251.16487965 -628477.773779779 -729047.913918039
 -152219.190015820 43779.5176824740 -1692605.29126622
 1669048.29580084 249792.944043957 -204649.142168173
 870363.676285921 -884740.459347033 -1161766.49572815
 1304078.41088510 -1020715.69971346 -384081.968623707
 -1151787.23197162 -1180751.84838943 411352.944309515
 610427.969317781 1000803.98079879 -1231165.74281933
 69188.2824658823 933301.163642852 -1419211.72469520
 1242934.39741733 -14590.6610989164 1159698.75240319
 -314129.195589647 -263965.797614384 -1649740.86030746
 27432.2451222857 458465.882409837 -1636782.36384491
 284198.610580411 1000480.96402721 -1344718.92615645
 90956.2113543531 -1623863.11569648 494768.177125993
 -171350.670778435 -1070269.61297352 -1309641.89882933
 810787.920440155 1124823.06345580 -983562.923247027
 -1447562.97022980 -884893.959827591 107350.487097765
 -1694577.27114329 -128024.233760546 44918.4560576284
 -342040.506648670 -813231.343853466 -1453156.24527640
 -1372430.85705964 707704.910878363 -711046.624145832
 -74498.5915611990 203238.319300182 -1686162.55011889
 1004351.88209173 544230.041450662 -1259003.95508569
 -722379.942638597 1518935.32578594 246987.235607441
 401665.675033600 1292466.87737128 -1028685.59647637
 406021.252643982 1629523.05814901 -264199.442395523
 -447817.312972965 413206.973228717 1587047.46352365
 -1643110.79818065 -148663.208909469 409983.115772942
 -471511.260127664 -832889.989092008 1404980.92429867
 -1208364.83359350 -360996.224992018 -1139971.99723329
 -1523367.84773217 442447.883141538 611220.313143651
 -436145.998510642 1636129.97448535 151179.941042845
 -673356.716357121 1489621.32249928 466496.568146267
 594325.209745544 1500217.44833706 -534906.676688521
 -557900.115565880 1496142.34652201 -583357.129034333
 703555.689015496 366676.524286667 -1503515.12097184
 1280626.55809189 -728935.119633159 -847731.803151862
 -460469.844586499 -1612289.50389653 -280160.807129724
 1467399.00688904 723850.699827745 -461281.171239357
 1641420.30892707 189122.717850958 -399964.957258061
 -1106428.63329552 1259028.38850081 -284012.669387924
 -1685425.37870285 76865.5730126552 208405.797687539
 -1475033.94693348 -814639.729251470 -225026.591581845
 -423057.051731129 -1642210.65905477 119024.712843413
 -1129962.49157880 994092.176235244 790547.603103639
 647064.161178768 -1396586.31758481 721702.590304981
 -1323592.96186169 -987821.988086672 402876.396879615
 543163.022283559 -31240.0119398672 1610589.33092138
 583460.499806138 1596722.97153507 7042.53776548127
 -859271.865858981 -242241.639455125 -1446710.35409902
 1465716.49520232 368529.867871757 -778370.665029353
 316166.042469042 -154632.806124138 1663167.97974818
 -719695.962715052 1421899.28797185 591810.895571212
 322933.107708274 1663924.24460119 -130653.420063312
 -1184953.80895518 219842.183478766 -1198980.35221846
 -1075794.81816544 -1078914.71004519 754061.375258334
 -1414191.74554207 496177.945790994 -802414.576731569
 -892539.390538754 1287478.32311162 -660131.050515280
 -21118.9388505879 1643948.81710259 -432419.098987090
 171357.968478369 444472.736679563 -1631894.73710394
 -1038778.13447670 -826251.983017827 1062190.02437992
 -579419.043690568 -1378681.14012073 808400.819942756
 205477.531500513 -1373638.06279151 980253.771479027
 -1024734.60510088 -229609.534619372 -1336861.41791908
 1229483.23270624 -1173904.04628717 17896.1058559548
 -306105.598202500 -1180786.12281958 -1184079.17594467
 1035787.29047687 62438.7285262480 1346568.26565407
 1582038.26385779 523550.564239337 -336228.699510470
 614292.946584782 1280654.40852028 934113.730609804
 -382719.085145389 -1267009.60293552 1066870.54881773
 -1393742.26384382 829832.813937012 508782.864185590
 384452.309622595 -586102.683043810 -1548767.27320624
 1517716.47382619 717911.204487689 -266721.216905660
 858613.060721836 156805.992928746 1458833.60687212
 245920.204842303 -1584118.69396699 -565766.043762463
 -939259.534255338 726989.081722679 1216255.89510039
 -464742.261506309 282916.530985857 1610581.53064815
 1660199.68227589 303726.158706733 203684.647158980
 1245773.23269334 274605.846254824 1123672.85359550
 -149716.842131297 -1002787.33614148 1364552.09708406
 -1102391.23153934 -1289672.68044157 107135.194720648
 363384.892055231 1597145.63636490 -455057.399090011
 530344.700759027 1090752.16318601 -1191215.43680472
 -1398383.38842435 -81442.6467857083 -963270.986931187
 738835.278392023 -690898.326526272 -1366302.28493060
 -1034810.97710758 872405.484509492 -1028627.68398260
 -1079104.91452350 -1311809.64695159 68469.2165572983
 491053.603571388 1011848.58289888 -1274766.17609077
 683626.172785181 1555471.66071942 56242.0534997269
 -1185444.71159873 -1217825.39440195 -40275.8549545038
 1538076.21014692 344489.824959032 -636905.277321348
 345956.723345272 -919285.018888230 -1387526.21583157
 834208.063504435 -1447490.36243939 314433.709117280
 1652801.85045491 -390318.790945756 -76793.7794841311
 -973465.712764345 1328651.60898761 420772.394539885
 1520133.96583297 -756606.268933256 -82095.5524485261
 -1302340.97538946 -1052796.87584258 292449.520494974
 531177.339017992 -1599001.30827061 -225932.402861189
 515104.721620456 -205021.502035177 -1607057.34479749
 -414980.960707139 1648172.68873351 -36298.6275709863
 -27810.3990722890 1038176.47935296 1345888.62073417
 1028964.24830061 -945133.756749430 -968480.643880853
 279698.264289645 1566740.31269254 597573.153293746
 967028.474899419 1385408.59365177 188411.669939886
 1165157.28317845 1237903.31287007 -1973.18055710709
 -64634.0231662121 -1111727.08435205 1284478.62300913
 746275.612961755 -1516782.43486312 180121.500074967
 -443284.100782784 -1117107.61973884 1202318.49853299
 1035901.24420309 -349104.789883866 1301934.89005350
 638022.643846268 -229576.834188367 1558916.79801825
 -66820.1342255630 1378495.70581393 992615.060693032
 851835.354911476 66299.8115756362 -1469687.33515257
 -424622.930215557 -1394850.53021889 874120.910105248
 1022096.34981738 645360.584753091 1195336.25701604
 117338.455404739 537746.650100859 1608434.09165204
 -324221.000854091 -1171237.64307074 1188731.73006330
 -1103688.77418227 125311.689295294 1286921.93635433
 110166.765018843 -1673568.82861061 277543.978115545
 -1368764.59962602 526917.946180381 859558.577878018
 -1450040.27074775 -839677.667035857 -286922.687654724
 1468228.63215360 678104.286726782 -523907.682752526
 -1102134.73279158 1292159.35214083 74988.2620776007
 -1051367.89416420 837508.593572536 1040771.30379968
 1172115.30284556 1090297.93480443 -572185.398447451
 1628741.12613120 485027.525691180 44166.0884702185
 1593596.71552867 -275451.638419333 -523999.907584277
 1472774.35591848 -177148.064767719 830394.038814084
 -363005.735799247 -1500613.10025945 711608.852605546
 -953917.723219187 -732294.695914329 1201576.23797413
 1699634.97108125 16584.3577837998 31079.3203679346
 -225282.051494960 -1312822.98220340 -1056287.75183318
 1104846.34113122 1174121.44038223 539215.546626490
 499457.500907924 237629.583687783 -1607505.64096776
 -618012.468831049 459315.492017082 1515615.34274448
 -1322068.62917167 731007.511039289 779591.276608643
 1364587.04038446 1013805.69874810 -10010.7142935220
 31731.4514970089 -713646.239177293 1542628.32863072
 -1156878.24481081 793101.002670782 -960532.938657528
 123536.838115904 1155506.20613528 1240783.64641511
 -1417864.46727965 -687691.881530595 637761.890130398
 204600.191271808 1409416.57319514 928269.187754507
 1209336.46718772 1044534.17731572 580046.258111628
 -8846.60604144115 -1687818.26084798 -202956.290638248
 -50236.9765087329 -352711.654747379 1662248.69823881
 -1336007.43889828 -675434.641852254 -805526.019315559
 -427658.047632624 -873883.437845247 1394071.85301003
 -1386428.10631372 952160.307905204 -247402.211132462
 -761447.503112564 -1442407.35383022 -479227.217111213
 298180.194416346 1352147.60145763 -986298.857106808
 1585553.65662849 204877.743496204 577966.012990330
 915329.721468068 -576555.402609112 1311394.43674260
 -1201310.40112350 -944443.270666492 744902.831680261
 -347484.434403326 1381428.13127917 927852.836368968
 -130894.622528670 -290569.396059601 -1669861.07921187
 274921.555860102 -1337671.35031671 1012449.25634094
 -911527.425029863 -1261424.89287838 -684050.431653400
 -1099375.26317243 1086256.90545768 -708110.136963206
 -73060.6240681205 1599255.95873939 571876.318487961
 1050080.32721745 1266894.72890042 426976.641369553
 -24770.4435092528 434942.364732044 -1643232.04827853
 1141624.23828486 1258689.80867618 48929.1742749065
 566144.252410803 980459.200404352 1268140.54497310
 -772067.491319932 -1400648.13412881 576278.225519969
 -733021.972508116 -240753.336280873 -1514832.20816364
 1608293.77492939 -550012.758052104 -29615.8657361957
 1086139.32692888 1304605.52743972 -91136.0536352683
 186395.651938945 1116650.27711370 -1268206.93089107
 601524.193390892 -1372219.55072995 803232.313443584
 -167258.277896690 1222515.37858546 1169393.35452066
 -1248856.24789957 1142062.13549290 161406.786584738
 -1215271.99407086 1084060.78234845 487776.793832076
 1195257.16217954 684277.531276912 -996556.358892008
 -1572998.21352645 461665.558634165 -450046.144538107
 -622987.526710175 -1294725.61496944 -908609.995270545
 -767366.021724980 -459962.185006652 1445539.40695710
 800676.650205556 -34150.8431638089 1499250.01975215
 -771966.583165978 212171.137460391 1499683.63427218
 943692.356311424 120514.536253485 -1408872.23806525
 -34595.2909591194 1200516.27374903 -1203147.47321648
 1047596.18101089 -1259878.07222365 453044.682853038
 1552040.77195071 44205.1180240007 -692253.818872187
 -988426.638885850 1199953.07047102 687841.121341247
 11558.5690210143 -1010461.51657954 -1367053.00665115
 -1343294.56680913 -1018877.16279999 -217827.991556914
 1514119.92914741 504642.300595406 585471.595048310
 -573398.416010297 280434.604518485 1575617.55800875
 1402394.80169896 717172.446281301 639493.942475311
 1465016.58524765 182456.848334561 -842873.598735378
 -730485.575492488 -1361823.26727710 708398.343236447
 -1166169.23550632 -925568.535516438 820592.590888176
 -1090992.70552192 -1287693.57666818 203912.160268725
 -1128429.17305480 786733.003916923 -998848.728260047
 653346.363625618 -850496.976376478 1319012.29043237
 -1531365.77749613 716485.604935632 177671.701274275
 726888.347630559 1099229.10852346 1073931.42101981
 1040613.41351473 1331368.71027290 185959.890620273
 21746.9923999000 -1249665.09537716 1152329.90836720
 1361431.16964195 863452.241738589 539402.814753456
 -1210331.09470230 -98431.8427099324 -1189709.97034465
 1124596.65657824 1193082.00876313 449263.486585292
 572581.393964719 364667.283939731 -1558578.94227705
 -338661.868176185 672357.270030155 -1524219.09202090
 604884.996219556 1572582.33753205 -226050.731099688
 1328241.06537205 1060169.69718101 -42613.2073241296
 -150121.389174728 636056.721056925 -1569361.46763917
 -393131.115820199 -1642833.39536775 -191171.025101715
 -479093.112958602 -671574.469620067 1486424.40805786
 -1592236.41155628 491423.287054445 -336580.395529795
 194795.458733176 -1111639.77441927 -1271342.49562658
 -744551.828414664 -1411131.35495931 -586814.173188665
 -483236.107724656 844069.707221445 1394284.47367896
 1624518.59368261 470309.122388202 172478.022304003
 349534.453764248 487922.799982311 1590520.98599457
 -704440.494462018 -1220726.03026014 -950574.325767018
 832028.167114817 -392202.596128996 1429652.49369112
 -199072.522540890 1633824.56195994 425426.176328668
 1541380.59499637 -391726.214545356 600580.081426783
 -1281742.43823039 1112413.07115776 -98353.8568464292
 1635058.12403341 331130.983753329 327012.542008582
 -1202676.86911183 -34674.5529296900 -1200985.43866381
 -1293062.24948317 388847.208076553 1032854.23353569
 1238933.06462554 -863988.369440923 -780108.299435655
 -655716.486026531 -546748.652836353 1470068.63804880
 -1205063.05292178 -715523.709588029 962210.402926634
 -1024873.26982503 -826858.440701780 1075146.45506479
 183736.807542344 1332276.99772535 -1039845.55915101
 -807484.349206688 1308045.51912844 725937.976465111
 340456.363118234 1449149.38405392 -821008.847399616
 -1537080.01334989 415260.697786214 595771.420457882
 749649.704419015 155487.428412376 1517843.52957418
 1614098.48714778 -533289.094256223 -16994.5795656058
 -475095.427030656 -1316430.94745552 965035.696643353
 -999417.811144814 -374226.116236931 1323298.47452974
 -240775.107272575 -886290.370925998 -1430565.17716661
 1565347.98399437 -142702.745630844 -647550.473240651
 1172646.81523086 -307024.068861455 1191904.21925115
 -943832.641055283 -553557.591590369 -1301058.77594799
 1022057.04259290 -1263749.66376658 -498333.411498864
 423365.550677010 -556655.393673955 1549482.61790626
 -541694.937817999 1494682.63697150 -602071.764059976
 -550588.817181936 904479.739311455 1329950.50869169
 -14340.1321992375 799962.498889744 1499951.45287392
 1493944.59118594 -729444.524424561 -355021.470130060
 -214988.660530405 1619255.31356250 -470948.091983572
 -1004574.95627842 1295509.21798561 449983.358950663
 575056.686899415 -274598.116192266 1576041.14205053
 -1151262.10167926 -766610.582262601 988384.433507559
 1165268.63348236 31096.0957821387 -1237409.40866363
 -1602028.20758719 -135664.004078151 -552359.393956920
 27940.9377997496 839909.562205166 -1477758.85424896
 976403.824013730 657984.760347885 1226251.04591242
 -229772.230114791 1673535.15356395 -191009.978937673
 -234807.351375657 1532083.48006079 698273.383328318
 853102.244675485 -982091.397744281 -1094400.77056183
 879506.492914370 -957005.970061345 1095722.54799671
 -229311.464001007 -273638.682664999 1662088.48255052