# OOMMF OVF 2.0
#
# Segment count: 1
#
# Begin: Segment
# Begin: Header
#
# Title: Oxs_TimeDriver::Magnetization
# Desc: Oxs vector field output
# Desc:  MIF source file: /home/martin/PhD/repos/ubermag/oommfc/docs/ipynb/thetaevolve/drive-0/thetaevolve.mif
# Desc:  Iteration: 2294, State id: 4597
# Desc:  Stage: 44, Stage iteration: 50
# Desc:  Stage simulation time: 1e-11 s
# Desc:  Total simulation time: 4.5e-10 s
# meshunit: m
# meshtype: rectangular
# xbase: 5.0000000000000003e-10
# ybase: 5.0000000000000003e-10
# zbase: 5.0000000000000003e-10
# xnodes: 100
# ynodes: 100
# znodes: 1
# xstepsize: 1.0000000000000001e-09
# ystepsize: 1.0000000000000001e-09
# zstepsize: 1.0000000000000001e-09
# xmin: 0
# ymin: 0
# zmin: 0
# xmax: 1.0000000000000001e-07
# ymax: 1.0000000000000001e-07
# zmax: 1.0000000000000001e-09
# valuedim: 3
# valuelabels: Magnetization_x Magnetization_y Magnetization_z
# valueunits: A/m A/m A/m
#
# End: Header
#
# Begin: Data Text
 -1078401.81649682 -1312993.70702000 55651.1230994398
 -1610892.83027396 -54227.2070463508 540447.684228469
 -1563951.46868834 547051.820121534 -380512.956007132
 -1543846.89726339 551879.756707730 449405.709739447
 1151842.44957529 1123972.86715789 -547671.402621359
 -646433.057689306 186020.629782025 -1561256.10558356
 1143800.98609501 -674276.912520561 -1061635.50687127
 -1022544.85369781 -1100999.99013667 795110.711722060
 1052964.68041126 -504386.621434645 -1235661.57095062
 781356.773062111 -1390621.89123842 -587922.060139312
 1498597.72452082 788320.162035334 -150851.523656868
 967187.817007491 -959769.210656178 1016558.30571035
 -260698.875376861 -50978.9631537069 -1679117.99516681
 559367.015526332 766671.018672621 -1410434.00805165
 -925279.326938829 -167308.800329164 -1416285.96422899
 -1288246.10932721 911970.412448334 -631452.237799602
 1029121.28417261 973405.031895611 -939889.369204277
 1177435.16058450 654432.745455957 1036997.69734283
 69983.9349413334 1083146.84651454 1308394.11407104
 -298692.246291866 -653544.356772245 -1540669.56734281
 1454782.50559470 -745365.465913522 466945.589591670
 1290849.06552875 -174396.815830692 1092380.17221647
 618121.214887636 -140191.240404657 -1577425.93481267
 333325.920332645 -490639.106967424 1593162.60863372
 -1410931.61791593 -462441.647945589 827900.774133285
 -1242854.71142358 -544211.080248814 -1024278.51018491
 1529857.87417350 -375690.822239904 639054.998348367
 888731.758551073 -697907.774314354 -1270071.10033033
 1444250.37342839 399618.048062818 802774.111761472
 124161.549579981 -1474184.90359054 837474.047139163
 991008.065373230 1259784.46632086 -566432.796350868
 -1360000.54672044 127195.021137196 1012037.51882922
 -1597243.39257976 -581742.608615328 -19725.1662027378
 -455617.871612417 -1376440.73946165 -887594.077164582
 -237679.200466339 1134676.25037899 1243389.88434504
 984123.359080236 -948957.746310229 -1010435.75245062
 1179769.71645251 -338682.189548647 -1176196.32316382
 867527.451044912 -1459788.76283866 80080.5193133691
 1055260.27296487 -1225536.16266817 -523914.945668376
 892092.706122865 1361465.10662845 -490492.983757731
 -603812.162575877 -1512989.30527921 -486080.481439219
 -104555.257888053 1401606.02141312 956330.883526428
 903536.779482843 1309811.35361656 -598343.969685432
 43932.0347955334 580931.864930340 -1597056.08687587
 -997171.550015567 845171.710591605 -1086891.75148918
 -1608435.26020175 -517663.418607284 186977.535483699
 1154684.20224535 -703309.531670696 1030562.99940672
 -284879.941543833 -1633653.20374400 374193.304059482
 -450947.820206198 1632980.44241848 141495.364341067
 1631275.89445409 -8172.45229382709 -478405.860328360
 -40294.2615867141 1311158.84772122 1081313.48300367
 483946.743312105 17435.1122431982 1629567.90791261
 1325292.05565251 58962.1852525728 -1063073.10563977
 491338.616212700 -1215586.10030383 1082098.33054410
 337751.446305668 -1665465.40713309 -46356.6409638902
 -1249628.96289324 442029.469069251 1064442.29696716
 1263855.27209432 -72503.7711347695 1134642.25832226
 127367.306142091 -221861.823315829 1680641.21711955
 -1180932.87844610 563433.095307034 -1085329.75805409
 -52495.4316494923 1694394.61068266 -127558.351139773
 930953.660438172 203648.938677676 -1407782.79286693
 1665738.08709854 331769.541248188 -72426.4916259811
 -939552.753427761 1396416.72377854 -239292.618101632
 -1091175.48518600 -179058.436948211 1291229.69942871
 -1401736.80120661 -558295.358517765 783224.254476692
 964404.924587332 -614250.613542245 1258021.98915388
 -1393165.97901881 -972160.964017708 -63179.2287442246
 -741765.003990875 832102.881710499 -1283506.70941117
 -447058.630284055 178607.747888678 1630410.33285571
 -186985.706350995 -1022879.52774288 1344899.18482573
 1452575.61543355 -231884.392801063 852205.204057766
 -1265805.83245424 -183432.247329892 1119860.79722630
 1521631.10002106 -128899.833604532 747009.791331700
 266526.776879095 874566.352295085 1433212.18688640
 921311.527440369 1428435.25598323 27527.9652286283
 -303308.989421550 1669473.86476161 104214.547036422
 -1335707.80306074 -1000066.63380781 -325194.392305529
 -231420.809602811 -1049804.83945295 -1316948.82510443
 147489.402418399 51046.2331763593 1692820.47431285
 -651145.502090739 -795231.055431237 1354111.18582808
 764904.343700359 -1448457.35049676 -454854.535846596
 266393.491197166 -1564289.46320926 -609945.065674164
 1599950.95666452 -117138.840584047 -562525.935664211
 235765.212855284 -1288013.55582684 -1084175.19083108
 298498.189622514 1087320.52535584 1272255.04751680
 16433.5566584968 1024395.66489571 1356592.59173800
 -164533.056232260 1169546.21263411 -1222738.94594066
 350168.313661910 42721.6309172655 1662996.39637581
 595919.681778513 302677.131194712 -1563095.09855310
 254468.695541599 -1126653.24132887 1247356.46741118
 1296827.90418563 198160.836697194 -1081189.00740110
 1293303.90213106 481647.429776135 -992663.472745234
 1500887.06589676 182726.024015597 -777141.695941781
 -1134969.74117983 825660.684626165 -959233.089748699
 -897946.609949093 -1307002.83515163 612727.896040759
 -136386.260325690 -1552168.87710744 679831.276813142
 129168.871067539 1240569.66594157 -1155120.03994942
 915733.821467268 -1399184.03297273 -306130.054217353
 -643146.313998987 -850288.536145448 -1324149.62299928
 -814385.530577068 -987968.393883382 1118344.60711992
 -785430.925801057 -1486853.96443138 -249726.949386671
 650427.197626443 1489476.16797177 -498402.654118067
 -1560563.19853074 33559.9307998069 -673436.139835271
 1634470.52113475 -436259.401545773 167880.463736625
 -1461773.77357022 -252913.708888347 830212.075772587
 -786552.543251747 37699.8089027120 1506623.31759233
 1268370.17439705 823593.049936510 776486.695826967
 -622559.975199823 1580215.20071936 73068.4384304267
 -1601724.14998133 -569618.917576981 3746.47901459433
 1189181.44690073 -358131.888755606 -1160857.02677092
 -447808.642197733 -1527113.95285174 -597821.373805379
 156615.823982601 -732210.240591501 1526217.43118443
 -7655.60639313538 -1662593.95050565 354574.036602732
 -76839.9830915837 -1148726.53583156 -1250808.92340713
 -1679881.56341446 -253989.785216970 59051.8577660558
 167043.123768782 653311.583665075 1560538.55109401
 -384688.402776821 491923.936846729 1581146.94861870
 31882.4856430233 1697737.60632856 81673.2953111441
 758944.496597248 -1520934.66240339 -27586.2970446110
 -1630846.16070028 -62926.0107265618 475795.247247375
 195407.898833775 -1169185.38530884 1218532.43200729
 -81602.3815518509 663914.814136175 1562868.57121627
 -424489.065342963 1544742.86889397 568839.610439962
 -1356606.06843869 -859581.627729510 557440.041928474
 -1428973.06436663 200222.354465731 898858.715308944
 777277.673356770 776679.289460090 1297154.07713381
 -657870.540697231 682463.384566375 1411187.47174461
 -1209650.84143869 -773009.404538209 910604.910102161
 -587202.294636580 -1200544.37309584 1050660.11316765
 9923.34770296990 1491392.81891100 815873.143859434
 -961575.290288187 80688.4028854280 -1399593.63486227
 1492876.48007724 790026.148964733 -192817.268895014
 60307.5806518922 1365731.60734595 1010514.80563729
 -130421.023511779 808436.623586209 -1489771.99002756
 1413801.83447052 -139386.104620680 -933667.974542599
 1392274.56049915 645815.254481821 -731091.105995342
 -443987.638145665 -431593.969397743 -1583225.07015059
 -1423980.41541398 618301.962813990 692807.664000477
 1505944.47438032 749658.105649102 245242.664962638
 -706388.778322557 1540910.17850150 128882.565347042
 -979479.949768688 -1143201.99262937 789752.006676375
 1688132.86701926 -198215.622477496 -30298.3546615109
 -804350.025695958 -328774.341368580 -1461139.44188108
 112332.214135354 -445633.705450814 1636701.58374507
 -1412172.33243449 -845397.839639778 425525.317976414
 -76090.9709346612 -348568.396302396 -1662140.25799311
 944715.704106992 -1336689.76796858 -459099.883055672
 699490.666031816 1452908.32274641 538303.087329588
 251435.093975180 -1453782.01845332 -844569.852847873
 -946088.215831295 -117391.519086674 -1407528.44344677
 -1330004.26505030 589888.758541728 -879272.373894518
 -919366.722475968 -1329806.94813807 -525716.948830368
 49496.1293196756 -71402.2282934428 1697778.50586497
 230764.775934496 -555717.640481251 -1589945.13183501
 -1640377.23542693 -101641.148346770 -434547.583649758
 -17124.2269085843 689675.400993990 1553722.82023421
 -78969.0164341842 -671923.377505416 -1559577.78555772
 1238873.84337075 856794.633030216 788095.525315562
 587682.852362338 1505878.43468229 -526268.947400562
 699995.010024468 1369400.41593656 -724395.946132784
 1694142.32379575 -104155.430058778 -95044.3744427320
 -1537493.27932582 674240.955278842 -267420.175477872
 -956005.255257922 -442297.441002276 -1334326.39395392
 -1133043.43838572 999435.853291880 -779320.564264661
 -730553.459693032 1263689.29372643 -871424.702112425
 508347.902492849 899031.158727406 -1350305.66379186
 594498.072024534 522916.590168783 1504370.39391413
 -305742.660852924 804648.356892149 1465968.09211024
 1351421.91837463 830260.470335939 611822.155478353
 -83386.6488830892 1674423.81837759 -281694.059642472
 -52816.6704665801 1694868.37238582 120961.149163940
 -1515627.84397864 -668841.290058951 -381475.513328094
 -1133323.85205332 -1068096.88819749 681722.879027731
 -1523563.92134156 414426.824728310 -630082.045873339
 -455801.934041762 -769594.375815370 1445672.54025147
 -325662.248184922 -1192975.68248759 -1166513.23228689
 -674551.046257351 -244527.594335368 -1541164.21629938
 -1105138.58209860 1120431.09734775 642886.358894956
 -732880.726851527 -1444833.59728060 -515113.304408638
 -694908.667991812 -1179602.17688404 1007789.98181182
 -1583480.18543706 479346.974153629 -390918.125312664
 -988148.238346865 1274086.00207106 538765.179255828
 250750.458343905 -1559534.64188350 628471.087963174
 1612465.94709623 -78647.1277429356 532698.975738486
 1075089.85059190 -1282839.89414125 297495.578377162
 -1501692.32949901 677992.897392480 -418623.671821355
 -200660.362767037 1236616.37577747 -1149136.78819068
 849731.534159510 -587939.848768568 1349919.64726976
 -673126.757224309 844037.792417589 -1313202.41154193
 -197939.311927064 -449968.349843434 1627374.73033503
 1576687.76647960 289714.949000887 -565792.307617353
 6644.52080719547 -331891.447472531 -1667274.39776356
 441089.297681511 223902.913305540 -1626440.19775832
 1419553.26448985 -622652.154739070 -697977.666888418
 35696.7931188089 1696154.93734501 108554.905375926
 611994.556353540 1133668.35310105 1109170.28817526
 -138214.235755375 -1646337.41535554 400586.994091180
 -851624.095906099 822023.705430283 1220251.37860311
 1254834.70313661 122139.865569417 -1140382.26969851
 -989179.196250488 -279490.714027029 -1354034.51155349
 358429.502148234 -1410723.05776631 -878287.393895773
 -884951.465594338 157605.148217709 -1442921.17622471
 -1180517.69024876 266939.416538506 -1193784.45747455
 284152.757111134 1555178.77687852 -625040.944717044
 -71238.3061967078 -1106880.17490449 -1288309.50556675
 1221916.60404270 1178985.01314712 -83151.3772540251
 1073206.75353634 966610.255622222 -896600.177275203
 1347796.18746305 523115.657761178 -894312.834339950
 -1226149.58626640 -1111941.42921682 387483.483635094
 -231556.120870183 -901423.984199265 -1422609.06913947
 1113275.96369887 1008607.84851240 795818.343951399
 42791.0691692151 1593023.19984143 591984.804844122
 -1611001.64930855 334752.969827553 -427333.751436482
 -386551.109025771 -1601448.12319678 -419454.584931971
 -1064357.58071236 849419.034624915 1017659.19835523
 1508237.86724689 450902.309715934 -641798.755760242
 719274.284473286 -1210549.35922612 -952478.216324486
 260385.586516893 -651295.045899539 -1548552.26244417
 940810.781573333 -834161.968064413 -1144136.74196325
 961043.749530635 -159295.059679980 -1393204.93662980
 659732.904893466 646636.182207185 -1427099.90612478
 1020909.35899993 -28777.8932347497 1359012.84525472
 540513.912302960 472760.601496272 1540890.04289074
 1053735.00192360 428787.527960743 -1263243.36593800
 -1666337.51105891 285098.154746779 -178992.573583299
 321670.354866935 1394324.64141425 917816.417996983
 -1699016.71730660 -18466.7383580160 54782.9707766849
 1202616.68459450 203836.508793697 1184129.97074550
 32207.2173987002 -897189.389704269 -1443611.40690614
 1652214.45976177 -196250.836370399 348816.553761489
 -375758.162999870 -1414926.07078273 -864170.132067938
 1647125.00703008 -394086.200018154 147225.263360011
 -1130319.27807261 -261786.016548886 1242516.16132623
 -487617.132794563 1309474.18679178 -968249.392424915
 353164.856111907 30851.7773125720 1662625.25911406
 -602984.980694773 -1383963.29063383 -781699.893331522
 1616834.13660709 508405.626079657 -131799.446404543
 -104280.470213807 -1439451.60219861 -898390.042498158
 -443386.259075120 -1550601.53561699 -537627.662053950
 -1149584.13922846 142882.727702324 1244202.89059249
 1458695.17698135 128278.523002372 -863569.916791740
 881877.334471454 -529573.191788686 1353456.53845414
 267402.303274954 -1540339.57559461 667720.001243227
 -124362.199067495 -1317.30045484873 -1695444.57537326
 280105.066085217 976911.437462953 -1362785.82150955
 1201611.57661600 327256.735477153 -1157165.78243017
 -14592.3767443232 -179608.149039323 1690422.42511735
 1394070.14938954 -160067.804369248 959659.687902664
 979495.817129898 -1383020.27365857 -133577.194439790
 74058.2504636673 1288793.09545998 -1106131.87849955
 196745.070059334 -414627.560699184 -1636879.76446531
 -1253133.45567042 -648371.430033640 948299.019822146
 1696802.27082908 40790.3469591259 95907.2536579759
 82148.2066681368 1423356.75905880 925908.855440337
 789270.783772676 -1505648.76155819 8569.52164035200
 214481.861690543 486129.143391117 1614830.01797452
 1018896.77774526 718069.409188334 -1155952.28270385
 -337050.732324852 1509243.85470340 706101.827556981
 1192856.09979929 1207739.30689148 91978.7571177429
 -1659780.66430768 -76983.0733964337 359446.453315108
 -1191959.77025569 -294957.363120598 -1175683.65644545
 -859827.754943260 986016.235223872 -1085572.75928616
 -341435.406498354 -1513697.03022821 -694365.295696436
 -395013.939859880 1423148.89755834 -841790.474343137
 -1291568.39579870 -45816.4625645042 1104423.80032850
 -275698.419143051 -69419.2266502952 1676058.27841794
 500642.016120992 1609900.14908121 218126.297549421
 1292670.69712633 -971525.898133259 -524537.794679562
 354890.283378438 -1605360.38912004 432285.678467272
 -1351144.26243315 1012846.33002107 -196345.343354128
 -1315495.60414535 -664082.772771883 847623.375315867
 -415700.108245267 228668.120892855 1632453.46349971
 255028.902981267 -642153.045992154 -1553254.55871443
 1063753.10999371 1123759.06922676 -703984.996508669
 1593209.84026262 235481.412123576 544270.988970244
 1242479.10087610 -1140500.46311198 -213317.550912897
 -746521.333090500 565194.168131914 -1418894.44693763
 -1134236.57945422 1241519.90144816 249270.367545240
 -421873.207139812 -1621335.25006402 288608.738601933
 -546794.113752570 385712.657507518 1562767.39888060
 -857187.105407321 -1254204.92739895 763020.488854396
 1117288.45997388 1129657.07420518 -604600.191785775
 -1117699.84198396 941310.665583919 -868723.945846431
 574122.879553481 -68829.4444361039 -1598638.61668353
 1682418.91127646 97081.0370590962 -223700.422938525
 -881339.155532472 -1376808.03950250 -466520.005237267
 56518.6748696756 687120.519443757 1553921.17919485
 306235.680198463 1561507.57913158 598258.964402561
 -459930.584066458 1280687.85685591 1018971.28082302
 -770070.742090239 1060656.95529632 -1082588.50693979
 -17672.2411258654 -62148.6245324409 -1698771.68576661
 887863.602104710 -69816.5901628203 -1448041.39022187
 578208.941702192 -140648.833517951 -1592448.53146520
 729034.750568369 -467820.698135867 -1462754.97840868
 -1371703.43815418 -899599.010591759 446263.708919210
 918299.600265305 281003.979814164 -1402769.62024460
 77619.0376711110 1157853.04571371 -1242317.03261386
 519622.201442701 7734.66416757609 1618620.69143393
 -538276.434066533 888440.620066337 -1345708.64051055
 656921.760420424 440205.814203402 -1504882.93293121
 708790.691580388 781816.090382265 -1332808.82213031
 -148357.202338560 -1635786.51558717 438397.782769783
 912073.348066684 -835537.564337522 -1166190.03010974
 97428.5368530349 1489696.00937755 -813211.829630673
 -1695595.05276065 121941.539601327 9363.65170618233
 -1590496.23791809 489733.583228141 347106.229599728
 -492122.183658496 -1600396.52210625 -294188.253302876
 -1046390.58471075 1107965.22073738 -753312.560538501
 72976.5016281016 1305357.81749603 -1086607.28808164
 1654012.06151118 5726.60596510061 -392697.474348441
 -1127071.04079632 1168922.27761958 -503320.551818571
 879259.414893626 1228341.85862542 -779794.305999712
 -374306.654001866 1592259.68548902 -463253.302995598
 292025.675713752 -57164.6056648486 1673754.22705459
 -1669117.25442557 -242822.953723038 212331.354547710
 -461639.445710518 176033.514724018 1626622.64334971
 -1694362.36180149 -42548.1703752841 -131627.657079285
 -1555204.48536533 676719.231938404 -115715.555671071
 -233350.635216509 1664836.67627206 -252717.871120024
 -109614.279569484 1690453.61710632 142657.905938040
 -600501.538676341 1190908.55947330 -1054103.74490397
 -283982.017144244 1676100.57982869 -6407.82620002436
 814602.594323721 1466520.42704949 -275209.829707522
 1425039.75771078 -877604.262224936 298450.076006396
 -656634.854599364 -1467139.24937696 -553473.658508600
 905960.838199046 1379547.67492766 -407533.032098454
 595778.014210888 653663.314814804 -1451817.07823274
 -1203303.82229108 871174.544065487 -826507.607364853
 -1105533.87306272 1068105.89265439 725909.538157412
 -1076131.91340332 -1190376.76031336 -561198.069722963
 -514215.593165241 -1504043.15949184 602856.946656101
 -436241.849580327 799135.635293673 1435644.55387763
 248364.247125196 -785591.027756701 1486997.62537070
 -1447962.62832687 -428280.317570448 781012.289628338
 519709.935064571 849412.405523029 1377824.42594794
 1160155.71985440 1055961.92745119 -654968.024763568
 -1633118.23199448 -418331.777158473 -218914.057444181
 862490.859586773 1221228.34489483 -809142.043620711
 610080.588862676 -857994.992524095 1334783.22880404
 -856812.955749482 1005794.89773211 1069695.36904480
 544444.768677485 1497246.16734104 -593155.804356894
 -1294220.11989174 129391.785069633 -1094646.99662672
 -1490463.21674084 -604701.965427179 550322.571362518
 -1134810.43051098 702976.114870257 -1052629.97711703
 -1242110.93203061 331367.718738727 -1112364.98844037
 944817.674017173 1015499.39613749 -982893.961375885
 512621.396916362 1467699.52228361 -687806.234132836
 -1148738.80300302 -1235299.92276998 210791.990549175
 -1112416.72293793 -1230646.95500463 371533.452956621
 389853.276107246 -1387472.39207981 901628.961560566
 -517930.501724400 -1609131.26271144 -180123.776187882
 479058.873109099 -1563827.35707206 463623.331346092
 166599.397552262 -1684302.59967001 -159277.724368730
 1335092.83489088 348898.237847549 992873.175108436
 1309812.54508200 938739.640497209 -541441.579586361
 285162.323919115 1296417.00976748 1062066.56373440
 -653304.879649949 -1077924.05192463 1140733.30472462
 -1005915.58467179 -100503.095297801 1366760.02441905
 779179.770720578 676874.667933468 -1350821.81238303
 1612426.13102615 -526723.299950568 -112447.931387091
 1053139.87714823 -90759.7855115002 1331412.43065180
 531133.039763481 -1612150.50492501 -94172.4139101017
 -306889.835250611 1098126.06241117 1260927.34924467
 -1133710.22297993 -63833.0690655707 1265158.67368661
 1630274.47865198 400194.453046364 -268420.423975010
 1465157.83831828 837999.634489850 202655.178590077
 -1200794.13109768 -936087.009262592 756197.438379143
 -769527.648582566 -1160684.87195550 975006.577455059
 101670.470440292 1687531.81431430 -178604.286391811
 -118828.409650906 1376130.38282099 -991032.279260762
 -1363708.75217968 476014.038905206 -896498.228661768
 170776.764905862 -141857.424887262 -1685441.11958046
 -1450749.35655312 534082.652674864 -707164.778939447
 -1671454.65884073 -242041.319200854 194049.795771910
 -485442.846425321 1251790.85906442 -1042767.89748115
 303514.081362021 1612865.12146580 -443334.300922087
 -1470804.35627917 -831883.432239148 186291.440265613
 1677811.38013707 263113.329022766 75632.9873342152
 -108158.832266649 -1406352.15342333 -948933.763528462
 1358057.08347148 -946959.097912368 385939.664862171
 1611143.64933721 -201569.711674436 -503573.026020929
 -1347389.72447242 608494.144266046 -839211.419595843
 1595156.25630142 -584356.909871135 63273.3740865084
 -1568911.94084336 -589364.894560928 284893.564227625
 -260995.751648474 -1425764.35070063 -888300.193567842
 235026.961137197 -893402.012473670 -1427093.25961782
 -100841.715938751 1365251.41877896 1007928.32674182
 -374740.392545960 1491112.88910228 725363.350430358
 1455943.19712949 -661058.782361930 -577261.373204990
 1130635.06822432 1240311.37405625 -270725.022648618
 803323.162122702 1496190.01552334 78021.3730040920
 1225315.37035883 1104974.77388455 409430.082237724
 127555.646621685 446858.407558969 1635251.39370336
 19942.1688443709 -1322482.53620028 -1068008.54460395
 -1396024.19436925 -945850.960825370 215597.793684007
 601273.456426267 -1441745.34970197 670701.555991910
 1373750.64380686 -687664.162961471 727960.965724630
 632181.872380588 162749.415341259 1569668.34332589
 1502441.87686287 541955.313444137 -582196.568933942
 -870595.305160893 -438738.948019337 1392685.15829052
 1665367.19628073 -178939.912326797 290744.921414874
 197434.704631533 1340918.13988891 1026137.45644720
 -761984.689030609 -716040.078174745 1340397.67984372
 -1313237.10904486 486383.582443964 963763.096490244
 368568.047569497 -1138310.30342230 1207645.33180626
 -1307944.73866773 879372.671441173 637168.945660278
 -1611398.88672441 375067.342991518 -390791.653038551
 344885.651894778 1392485.33489425 -912161.432654095
 -592667.323206942 1555499.78040420 -345204.109426873
 -1039746.10139574 514519.702940622 1242657.44270827
 895547.364353710 582433.043265921 -1322409.41780945
 1265949.12966453 930546.762993237 649196.058971725
 653751.659840049 -222142.903607067 -1553467.50774949
 1406194.28907434 -461796.361642114 836278.507286184
 -612825.487320098 -1476845.15381176 -577384.892211082
 -125907.810362953 -565203.728150340 1598340.37957331
 1645575.20445663 -421474.194120245 -66646.4565316527
 312723.537249079 -794572.851231329 -1469985.70514701
 1649398.31550560 360747.078204758 -198360.133025819
 48100.6743744476 698150.129176305 -1549281.35671215
 377144.701041697 -346632.509140792 1620989.75261503
 -872429.223395247 1162965.67403836 881123.198635968
 1688322.40022371 100063.689318098 -171914.894592894
 -590926.983022030 -57852.9858669388 1592940.15354085
 270805.021242056 678188.965197242 -1535162.65195411
 -183282.276941378 1458032.13081079 854722.125888021
 -325181.904473758 -1049831.76739378 1296961.83026860
 694192.661108315 578378.342061680 1439991.33424383
 1357242.94219953 1011132.74915894 159693.955514467
 -694461.692251830 -1541739.13949137 175394.936515058
 -76718.2322272054 -483924.762431934 1627860.90841605
 -1056633.41580608 -1259879.39647954 431543.428785957
 -1440815.05227319 -901254.057489368 42345.1178053110
 -1383942.87631872 -756957.658939043 -633811.657876535
 -1043509.83568946 -767446.245276835 -1100960.25515449
 467148.600663214 1460781.05968588 -733410.444813415
 856717.248675913 1354674.01389787 566474.952571609
 1005263.58539280 -367377.609213440 1320787.19562685
 -1207061.02514090 -189691.328505803 1181956.37883786
 -393276.878659002 596573.239033610 1542541.30161276
 348115.039944060 -726094.584974719 -1497198.24092708
 1023651.98619205 -888493.404189200 1026019.53289271
 -377552.109657687 -1132126.09288047 -1210679.52584994
 -1060877.46746673 204495.214715951 -1312524.55450542
 664749.745995900 1535953.82978387 298250.914450646
 1203352.51410383 849878.917725337 848321.019429562
 -568719.979124759 -389748.113233617 -1553915.69706184
 1507006.30766321 346107.437433827 706499.561511735
 936229.519256994 774689.253041311 1188835.92160319
 -774252.026470502 -1488814.63372632 -271964.677685690
 -364630.210416244 421803.839137667 -1605965.85609425
 1674029.76054285 -294125.228395208 -33387.2855789754
 169260.259024627 1632949.00722265 -441393.820216676
 175784.279641141 292148.387466060 -1665457.65684151
 146176.550366074 -1159316.35353914 1234754.23001494
 -763998.910705302 1407807.92578308 569545.879226126
 -860447.886077166 -669542.206752988 1304355.26936555
 -138396.917085263 1442423.87730148 888965.495130069
 1260289.79493300 1139424.57842415 58148.6274187496
 -1604693.96651557 524785.461417367 -198890.656677198
 -1520642.40307213 145119.595633785 -746047.575521903
 -1536752.29160449 115467.235939902 717676.606608253
 1372078.29960598 422571.934119390 910403.262430969
 -1284082.98185563 1111981.34997694 68032.1469027726
 1477152.72749483 -521185.203865970 -660595.037012670
 859848.607264400 870177.313774640 -1180445.60026179
 1586015.03897507 -501616.642026811 350623.787822005
 1015724.66773269 100079.605788829 -1359517.36725371
 -935781.205727925 1336582.96354094 477346.327710288
 -1400656.67846862 -95.1553987647607 -963411.054538356
 -439352.441908752 -1642067.12842531 -24186.3088107373
 908212.533605575 1354756.18925746 479359.636880643
 211289.634717420 630634.706190864 1564498.81994476
 1373634.86552766 648516.652716104 763251.863644438
 1648472.46930213 370768.346893090 187268.125678430
 -1262717.91258212 -841319.475592268 766632.254234978
 -1552540.93896195 -194670.286394473 664620.276881646
 -939441.047032261 -1404665.24505508 -185380.874108621
 -1051400.83682112 912147.689418320 -975983.029063858
 769313.607038544 -1503232.84461106 196080.567389728
 -750966.255864574 1101451.08694101 -1054919.51618558
 1336125.73660206 795205.913515691 687324.938511085
 367522.732092432 1437393.83499439 -829955.423209840
 -323911.997111983 -315269.047870398 1638806.40881766
 1693337.04642368 -94337.8398787921 -117089.791084174
 -1280044.75894780 174978.004781608 -1104929.00809641
 1158899.89927288 1139318.82475231 498902.434380042
 69754.0990259020 402973.048046603 -1650074.87351851
 271996.624639921 942660.803894573 -1388311.36456680
 -911429.844554220 1434979.30906442 11402.6756892763
 1260502.45639524 706346.119550580 895661.050184388
 478726.748442853 1177265.42620887 -1129100.00291319
 -1536269.11086437 -173340.326224067 706986.810561930
 -778157.152899012 -827374.144847908 1264880.81249946
 -1562436.58455609 -68454.9187948322 -666412.667446745
 1346848.68610129 -182498.170717081 -1021123.41782575
 -1387222.39127063 -392731.465078827 -900764.138659183
 -686586.966754525 1227785.74392523 954536.800808011
 1251078.68028134 847172.648736400 779166.631073521
 -553852.879776434 512102.489929107 1523482.20448148
 -293752.800752775 -1090047.06295439 -1271025.84261470
 379375.906680175 -81194.3121972853 1655137.88099282
 -24861.1982232589 1689296.27885967 188838.563470969
 1690278.34060730 -138344.657872720 117558.015089995
 -1299870.29844268 978243.123717456 -493333.151253841
 1308093.24065618 801535.168120973 -732416.171322625
 -821726.529448380 -1327605.21042392 -672480.420574453
 -1673663.63095718 -215605.756148014 205825.674606144
 878673.806432538 -1200713.52065543 -822325.594399569
 -838035.765234698 -522165.580106759 1383849.40045486
 -1338020.99697396 85729.4818846238 1045155.61883989
 -989331.552414200 1155451.90900257 759048.065263349
 -50599.7866777076 805799.079053359 -1496037.26751205
 -965392.985789475 1067330.65005077 -904887.654049211
 1375010.06432691 612499.439197930 -790058.073803393
 -1678492.33350014 -200891.693912165 179738.737333815
 1130526.64810562 -885624.814351107 909713.243900873
 1610843.91613515 179380.370041605 -512839.702727971
 73077.7026055108 -632633.579267015 1576208.87060240
 -150526.350332280 382703.166117764 1649509.04953537
 -1398034.48358977 -926024.075662041 -279247.191549232
 1168192.84028778 1152687.47465145 -443437.790092400
 1628012.59681406 -462844.182812340 -159217.609112538
 -348408.653389667 -608394.977355399 -1548698.47348408
 500766.472610100 -1461080.85798095 -710264.504499055
 -269095.428087750 -1022111.11728587 1331494.09105069
 -827885.629163091 1259059.12250903 -787004.136616842
 -857659.291377617 473127.012108576 1389450.02440781
 -848670.694090331 531101.655900772 1373931.97942682
 1183498.31004514 -1123668.25107466 -476131.716699399
 314338.014728425 1651893.73767055 -249877.353798649
 -586695.894316697 649564.957233333 1457344.60369756
 453027.973645955 126861.115353684 1633607.02511512
 -753505.795437436 -273668.403256733 1499111.27715761
 1237542.55585418 105615.699181351 -1160747.06397920
 -1663540.84809454 -132894.016815943 323992.325550180
 371304.954292904 1250183.75390447 -1090492.18813840
 414169.324397986 263940.243464853 1627513.23146923
 -902055.711043290 1433521.40590959 145985.865662352
 -913677.533256289 1381636.11608143 382459.158554397
 855237.886185546 -1255198.24354231 -763574.179396594
 565408.386086201 631457.087028269 1473626.58234207