# OOMMF OVF 2.0
#
# Segment count: 1
#
# Begin: Segment
# Begin: Header
#
# Title: Oxs_TimeDriver::Magnetization
# Desc: Oxs vector field output
# Desc:  MIF source file: /home/martin/PhD/repos/ubermag/oommfc/docs/ipynb/thetaevolve/drive-0/thetaevolve.mif
# Desc:  Iteration: 2498, State id: 5005
# Desc:  Stage: 48, Stage iteration: 50
# Desc:  Stage simulation time: 1e-11 s
# Desc:  Total simulation time: 4.9e-10 s
# meshunit: m
# meshtype: rectangular
# xbase: 5.0000000000000003e-10
# ybase: 5.0000000000000003e-10
# zbase: 5.0000000000000003e-10
# xnodes: 100
# ynodes: 100
# znodes: 1
# xstepsize: 1.0000000000000001e-09
# ystepsize: 1.0000000000000001e-09
# zstepsize: 1.0000000000000001e-09
# xmin: 0
# ymin: 0
# zmin: 0
# xmax: 1.0000000000000001e-07
# ymax: 1.0000000000000001e-07
# zmax: 1.0000000000000001e-09
# valuedim: 3
# valuelabels: Magnetization_x Magnetization_y Magnetization_z
# valueunits: A/m A/m A/m
#
# End: Header
#
# Begin: Data Text
 -464903.476645786 -1080463.01297052 1227381.12866596
 -385182.603612538 -1106753.97439556 -1231555.92728625
 -1393585.62987731 -790917.925985048 -567774.538487748
 832828.672305025 589555.273899924 1359713.56601434
 -98078.2414600370 626419.414725527 -1577332.99445838
 1573905.27233156 -426289.787035792 -480727.793242599
 696065.229058455 -1287814.93857478 -864306.589630922
 -1227191.34714576 996605.115835226 -625123.700223910
 935321.593515189 1416758.46245524 -89269.1198885377
 808063.908433797 -952081.626459665 -1153504.78821920
 783962.313080779 -1277727.58162268 801757.643449505
 1149008.65503383 -704771.455339464 1035893.96484198
 41073.9126976944 530981.931523866 -1614425.94196541
 -85388.4154225198 1585727.87058620 -606775.031587306
 -1159999.22752186 419735.729417633 -1169710.95130333
 -1033310.10566814 199763.215204609 1335052.38974926
 1540656.38102024 718556.477782116 -7382.67288807197
 1685874.29558915 83184.8528374316 -202257.607348147
 -314480.964954752 1628127.39251178 374570.309066159
 -991339.599898518 540884.083402559 -1270704.61004705
 1434570.83002221 695551.835395018 590096.753022771
 1180159.10039285 -404926.996265828 1154668.18846588
 35665.5413802672 96785.0093950047 -1696867.88852711
 -1186477.52504646 -218213.475431085 1197770.41276695
 -739956.620747082 -458446.232901552 -1460236.71058871
 526608.449515898 745207.960754164 -1434346.06567839
 1669291.19767954 -321474.053592411 11014.9996135453
 -1341117.72131245 895800.801549961 537535.283980652
 -329541.257914389 -829963.184851752 1446569.62194114
 -1562360.02268761 413586.615528949 527235.498579981
 476742.106727614 649586.271337287 1496915.04093019
 723070.073543947 270801.472854691 1514541.59105813
 124736.658534547 -1445907.20575306 -885320.912646375
 -807048.937875518 -1490971.23796678 125206.946411933
 -1168402.20385233 813665.165971036 928862.362095878
 -688853.219341006 836482.690162699 -1309877.07486684
 451262.592830515 1021426.22478392 -1281815.32977085
 457485.073444664 -1267116.48084655 -1036881.49349016
 865418.653793694 -1415299.82970229 -371452.481093572
 567278.613527413 1601603.51375148 -55327.7450589914
 -487904.738183805 -1587500.61500060 363029.976490228
 -100532.412364507 1695591.63502922 -69729.7732902992
 1574281.80339966 85153.3434713985 -635913.289356610
 465937.396831778 -779701.344295126 -1436999.70631103
 -1347264.11030240 990595.567131396 -305940.908462243
 -1577122.06938823 -519395.726686038 -364573.802334822
 -468748.827216112 -435671.496637072 -1574949.16870404
 867129.623055566 -1453667.99407252 157910.037137264
 820554.660269481 699308.153203649 1314404.10695225
 648452.067019510 707511.237870624 -1403188.42821087
 527085.189562025 1486707.13199727 633942.510495093
 -1268146.43491992 175125.640312903 1118541.74249552
 -287033.440397332 396310.346067795 -1628050.95549657
 1598942.36591630 197250.556672441 542655.994503317
 1574465.99547789 473400.360344107 -432375.910418103
 -1227015.22598351 1153567.50889248 -231766.342751132
 437965.412117955 186647.053934124 1631977.07552712
 823201.744618815 1053161.00646280 1050328.89235839
 -875301.528966773 -530248.525852357 -1357454.87373239
 -66303.0853700431 1398662.37221812 964026.695383271
 -475647.681557439 -326547.938285923 -1599101.53743602
 612022.373333313 579934.407111868 -1476179.08736957
 -76803.8735553762 1403951.15982189 -955522.006989716
 649995.738909268 1311343.31567329 864803.011002376
 -1688991.92735821 190380.617295816 32580.5137600691
 672574.073053233 -718044.418856827 1386382.46122964
 -1104077.25510909 -903415.706393010 -924582.866049984
 1138133.53326355 845593.649487200 -937882.423552096
 1249674.20215640 -399151.533604794 1081199.53833032
 609129.257937180 1566633.30860696 254207.835221723
 -206403.528567134 -1450711.69624422 861877.693048884
 -204091.990791421 447718.042408365 1627235.38979363
 1587895.59837469 577271.188665871 188004.104738649
 -602552.629387539 -180698.906904274 1579328.41228852
 -514135.660687574 1602355.62076039 241082.946362754
 -841645.881418078 1410520.16595336 438252.292328181
 -332609.420030509 -1403880.44445692 899161.093118692
 -871515.754803858 -865082.051290539 1175624.65679468
 207217.515211474 649404.369178502 1557348.66573977
 -208289.450704882 -1638625.81862824 401896.667378551
 910765.093535547 -905983.041160901 -1113418.91196711
 -1291271.51520862 353060.016040260 -1047838.96619876
 1429212.85939059 -797216.005894495 -460214.344081313
 63112.4842078169 -171486.993592688 -1690150.59251111
 -464600.097126835 324021.436900196 1602858.96390758
 -1398274.48238357 799830.491068857 543230.758951948
 -570208.568469348 -237860.984351046 -1583756.40190267
 937652.879193527 -737151.293325893 1211369.08037478
 1061971.07459039 500250.909871300 -1229620.45522440
 943684.147168565 457950.357801467 1337812.28136546
 741445.518455647 -15094.6107964942 -1529715.88730945
 -636184.770598904 -508734.107435873 -1492132.21451366
 -683215.845377381 -1068268.95105910 -1132262.14139146
 777706.335025005 1307441.55892881 758794.719570306
 151329.739162797 263483.148821720 1672625.46325587
 78322.4486317079 -1693747.53791350 -122820.486289110
 -632936.732112731 1274148.90814908 -930556.636108180
 -958825.337900890 151080.044717069 1395646.37049918
 -1607785.40047631 -358429.185001018 -420184.037482069
 870292.638538326 -740900.274707212 1258434.54587228
 13187.5256277387 -1048324.19034283 -1338223.62896112
 695253.924126099 1500678.18287753 393175.498248133
 -938856.104475163 1172138.77750410 -796642.894502249
 278828.312538119 891056.160319496 -1420659.59725890
 -1005695.57575794 -452454.499777184 1293777.93091870
 -22384.6675162393 135583.055815532 1694436.82727799
 331573.643293182 1667061.18283262 31079.4428196538
 -1043464.95809562 1184538.71705689 -630911.173636775
 302328.739372676 1381767.44790057 943035.552496119
 1348749.07433616 -406267.865433038 951747.002093427
 533142.945053068 -1316159.88982396 -934602.452681742
 1580236.21404887 213535.838256072 589284.272307313
 -1567136.31522689 -603662.566006123 263960.746892378
 -1519739.24646116 -115945.452807378 -752960.340747750
 926692.509639164 1424883.73105581 -30778.9790464194
 -1213415.13156066 1189954.46570936 -40399.1093711091
 416333.211529365 -1535114.70458362 -600074.579322252
 1392111.50334745 636778.194253720 -739282.823803356
 931427.236440219 -1320200.32332306 528691.223224886
 -250925.693302208 -1681284.42691904 -17859.7939606672
 759698.303984887 -237877.211843218 1502089.51764140
 498210.988326702 791661.479742282 1419527.35535557
 946550.502917931 1356688.96846814 391710.592482084
 661089.969748462 520622.342275394 1477129.79410127
 195771.618357211 -1353066.26488187 1010388.61646617
 -5649.86304359055 1569965.80035686 652054.801958730
 -885272.571523154 -1405761.42206767 360731.615380544
 -1009660.20324081 -1224359.75785560 609532.162675196
 -1531889.95380166 -486763.205696676 553511.292587089
 334371.048957840 1666106.09073389 47817.3194382813
 -1647254.14678055 133211.350378648 -398507.856942098
 -427156.823599290 1645400.94434364 13884.5383654610
 -653694.254023747 1226226.94308831 -979311.649221342
 -538247.215384558 1515180.73655029 -551830.835236393
 598903.476328490 272517.575991082 -1567497.62258754
 716114.888750590 1370310.45860262 -706702.704929034
 -247915.764933876 1613983.89328637 -472857.024595629
 -1014909.38768236 -402468.316667788 1303064.92120416
 464389.435479966 279431.665402011 1611291.53060061
 756860.121876417 813695.418572820 -1286492.33254879
 1062326.49887750 -1244464.62570965 461270.208381190
 942806.049900346 1341287.25052795 -449516.700293186
 -1409258.00607245 237255.129881835 -920707.269258511
 1162628.28265982 1240090.11214859 -21725.3333869893
 -888814.859357305 -1022545.53181490 1026844.08804406
 -415571.542901173 58534.6041922433 -1647383.98463831
 -1465296.01360715 -488588.035299742 -710062.901628396
 -627373.360341463 -810747.716581509 1356130.82215239
 -1509312.58334637 -98584.0022171539 -776052.008733398
 -1342277.92855241 -350303.130098265 -982638.122385051
 -1260157.03020259 -473523.424376579 -1038161.75319537
 508526.259374495 -1114340.25029306 -1178832.83382479
 -1657404.23860067 -378127.344042889 5558.91676644908
 667755.764691594 1528205.93688678 -329679.925359649
 -1017160.82786382 1051596.38672001 865753.365397332
 -381079.028216994 1033400.58084543 1294937.06942134
 1462632.81037895 856958.906174343 127775.956781571
 363922.444153167 -1629000.57946118 322362.477277862
 1310828.19771733 322300.363156537 -1033369.20409809
 -34745.1510949155 358219.312277971 -1661466.73117053
 1681446.43743989 173961.108513155 -180209.352547437
 -576097.696722733 1566533.42331721 322621.260088079
 -567605.068564032 1362395.30837481 -843625.218837563
 431051.118743515 -1035158.28164138 -1277748.90529369
 274921.861032106 1022586.58310346 -1329937.83703729
 -1638864.74481621 11523.2216938337 -451652.038144738
 -1169134.98918313 -1233242.21340642 -47297.1472732963
 905236.603888344 153879.882552790 1430687.83203263
 662038.541508559 1564655.19832636 -59658.0246699048
 730611.229334962 1340657.30653326 -747559.508004969
 217878.283480528 1123011.74093503 1257526.81216333
 -1618968.74333867 -515377.857234369 -57670.3768404927
 235505.428241551 -659797.226960118 1548936.67157973
 130980.766868703 1644014.88271453 412382.230610908
 -1669735.29872589 -184005.710672117 261009.445478130
 -98332.2607956357 -1696213.45796512 56486.0292889820
 -678285.763637914 243672.938887693 -1539659.67723389
 -1266699.99887414 592699.979655545 966528.761583720
 833844.301058331 -1137850.85246362 -948682.833796607
 -1291080.61975052 -1105940.71147167 -2444.58875056602
 -660095.328344769 1318601.30192688 845910.612330974
 -1277584.66502713 1057737.63559647 372784.814511392
 -70387.3773608582 -1591183.62476377 594289.735223389
 685124.056938492 -1497826.35776968 -420857.729612469
 1267328.43458064 1031099.24270771 -469801.011696419
 -1099194.24205857 -270872.914417308 -1268227.06265888
 -945171.606757306 11229.3260625255 -1412984.26601855
 1425214.64147482 -841668.842778027 387758.668275133
 -528005.224417829 1543698.12161000 477709.736477341
 1041665.32300790 -497907.087330886 1247806.83089512
 1330209.72085367 640995.373820278 -842417.372379866
 794100.491987127 -227306.539953535 -1485845.26298002
 379415.935471951 1652935.26190538 -117679.938221225
 1436736.94083327 -866564.168098769 273593.686718717
 -314340.016120028 1265290.14066852 -1090977.18316778
 218767.125889997 1104779.28929221 1273422.03003593
 881889.923040160 -1452662.57587166 -45184.1155952633
 1093625.61864525 1224328.59087015 441590.882855055
 1030485.13406374 -1265563.26478136 -475867.640536295
 -76383.4545908725 829042.665202303 -1482178.74331641
 1359291.96715743 -834658.427703983 587937.630267025
 955984.417329137 1158059.39355204 -796864.000209419
 -1658513.96544311 208440.811878655 309651.181773210
 -1660888.31710378 46333.8764872794 359587.499779711
 887779.482154647 -307997.141764042 -1416681.10445873
 -56471.4667689901 1450996.11963328 -883980.335895613
 1448393.25173693 713096.111269720 -532588.888745272
 1038256.95261609 1329847.95336656 -208631.064971440
 -616783.898980104 -1380549.54339820 -776955.970555553
 -1326662.07147325 1062827.28045878 -19129.0362255733
 -834259.838023360 1110002.26972886 -980767.803232766
 823666.782121694 668809.922934172 1328256.87237600
 -215639.799562518 -944400.160724269 -1396999.57525713
 605391.878390464 -1007997.19798223 -1227779.42743754
 -1197756.89658125 43315.2804211349 -1205612.79156041
 411576.105781784 -921984.543106435 1367680.37619260
 -426749.405100587 -1202773.36782534 1123041.03704913
 -597530.388775479 -338966.908293411 -1555010.89049943
 650504.737278932 -1467940.44549155 -558564.620494120
 -1005494.29465923 1090249.88421401 -830864.858673825
 986256.271387530 -1240868.36028254 614446.319541814
 395124.135063065 -1645261.40155577 -164291.930542597
 -1099488.96955695 -1290695.35312077 123407.905966541
 1415151.72580025 850242.560104701 -405503.615213441
 -531415.772077047 1227517.17644809 -1049189.61999853
 448279.956501318 -156188.031883146 1632375.68570953
 -1456405.87394187 672298.997419113 -562935.154717552
 1128515.74336977 464793.336311992 -1183393.16014863
 655872.482440307 1138300.19354988 1078936.49309952
 1228366.45568712 477959.469184715 -1073624.97938494
 -245981.852845724 -1675344.96906296 -150705.549685475
 806826.936086172 1266323.16684089 -797154.898578602
 -395341.920424634 115853.939303884 1649327.93303901
 38824.9086321822 229882.241167949 -1683937.87939618
 -1432804.00009598 -911829.900262704 -75092.8112129198
 -1398112.46032028 -910823.774659914 325087.064970953
 742760.076038737 1499128.69281084 -301530.482429564
 521957.695755314 -1576573.86995061 363283.630832392
 50409.5896112516 -979336.167583914 -1388653.86044805
 472753.800988717 -407973.555051258 1581158.25331608
 157567.053948480 -1621806.26409284 -484682.437539498
 1026244.85882050 417803.043710751 1289287.44134522
 91813.9934211923 -767713.300842145 -1513996.85545318
 -219699.862928142 -123986.569267515 -1681177.95038795
 839660.740741980 1394782.97515004 489438.752744640
 850851.647724587 -1174797.24571260 -886511.649686813
 1344185.49418809 -767783.167519774 702619.644535809
 1480180.23128826 573679.837060664 608241.668626451
 1651246.34880198 106714.180057003 -389868.669352754
 802768.616564411 985878.190498984 -1128541.86531015
 940361.881846894 -697729.844845379 -1232433.60664233
 -1344443.25307705 127112.651523790 1032625.15613275
 1537506.59162379 -235279.289142674 686088.286457294
 83436.3758940856 1125065.70793811 -1271717.54882890
 8810.07596431728 -1696224.23921293 112896.912570866
 1172880.73656291 -740933.861620063 982531.317823725
 -115654.301978273 466654.935238853 -1630600.27408655
 -909464.471233978 1405447.42761932 -295959.294095201
 1635859.36076260 254736.492517414 386100.338235179
 -1003607.22091134 -173515.252674032 1361126.37298088
 -1216308.45039318 -480401.156449100 -1086189.89241500
 369402.429539030 1603277.13450561 -427836.738747563
 275335.616347393 561525.282164415 -1580784.50645898
 -656390.265238031 1322288.86951164 -843032.600358011
 -815533.560494815 -640242.715167927 1347217.23466598
 -988188.736805722 105908.636719398 1379226.73303505
 219240.337985758 -1205920.08033149 1178002.73091924
 896889.006403996 -952265.414218117 -1085716.67163936
 -85568.1739258889 -638803.735547954 1573088.64183204
 -1504354.54914983 447629.999872798 653103.953185160
 -689194.095201986 -901198.043103490 1266038.54058443
 710675.089538290 1294322.09241983 842419.870482467
 -1393634.56824481 -8961.52382583070 -973500.067428766
 1679816.58395181 -247404.924900826 83708.1084201531
 1525355.69817456 -92947.8849894756 -744748.739322458
 1251044.18766140 -936828.985613019 -668759.966081931
 -866431.016975515 -649920.318703096 1310305.64074175
 -1230759.19540821 -103181.495941903 -1168154.69087502
 -282716.951205133 -409251.714971112 -1625602.70647366
 -559439.575694897 581082.885533257 1496452.48547579
 1094571.02107448 -1237092.40933310 -401891.341775859
 998037.379369416 1376122.11186650 14467.9858136284
 -249336.839788294 1384297.81809504 -954751.638459818
 51516.6011446379 -1119469.26631103 -1278332.74290834
 896896.724832675 475500.248303986 1363625.96735588
 240141.363963092 -1682441.17242162 -41518.9914921171
 -1640811.76894231 -272645.838549394 351284.764289728
 855962.947366824 1277860.87240045 724154.005390468
 1491926.83780952 721922.974385996 378128.985502762
 791861.997508815 1375314.06308966 -609479.946158336
 -1256834.58934859 67092.2575774334 -1142744.69764253
 804872.100541592 564263.333047670 -1387006.77458609
 939560.345308502 -1114943.08136933 -874144.314647440
 891731.672606762 1391273.63508786 -398964.028929135
 -770136.617166461 278344.076378744 1489769.83660036
 -22130.0763618792 1645673.32842410 425757.625690659
 -725682.133000074 -1521111.05423190 -222725.397155262
 682568.575547449 1463490.95081818 531313.821153197
 110587.845952887 916104.957711830 -1427768.20064859
 103804.269181449 -65393.1790468512 -1695567.28142349
 59381.7057248486 -966318.404400015 -1397391.33901102
 -721209.312319524 -1533618.20855648 133687.389860074
 1052034.98691808 -1286369.51714169 -358435.282399653
 1397396.36869083 -581490.473493762 -774049.234871850
 -535449.515960255 1606251.10554008 152483.447656497
 160185.327968527 1595244.16115849 565275.797282509
 -128259.303278944 -1442290.66917109 -890700.385508174
 576743.507579214 -1310656.81569577 -916267.230634952
 -1359293.80781228 983989.824249399 -272184.440805914
 1186894.78614429 1216844.00800409 23904.5353031764
 360657.474216354 -1296352.50446023 -1038940.02255740
 385319.213041256 1655699.04000701 13776.5373424162
 -1175091.83086999 1226303.47376086 -73068.3191586271
 52035.7261679922 430799.332348438 1643686.16787096
 -989396.792938490 -1327534.53142380 385676.099856370
 -252634.763348661 1638862.89779986 374571.860345670
 -1424269.57589494 -695151.341257695 614996.575541431
 458301.779347049 1203497.80536334 1109753.35617106
 1494020.22268894 718633.916699720 -376123.474360906
 -3657.25113533162 1531662.61452373 737561.021058228
 901646.699572896 289849.542177896 -1411743.76996981
 -1281702.49015830 340303.771683192 -1063687.95692167
 1586714.30685434 -605838.918024811 72779.8999055642
 507423.768212314 -1621405.98138907 59697.2609838106
 -967553.565713320 1377171.05754186 239248.773757531
 461428.430101557 1636045.06619850 -20984.4051986423
 118652.286208807 1652983.33507863 378903.323988770
 -393622.874713625 1045182.97894013 -1281660.47494491
 -140528.724463055 1219870.29309698 -1175656.47432414
 -139519.294389842 -1110797.54368232 -1279321.37613748
 -766210.631634713 -617450.666776694 1386245.26764456
 -708545.609154697 1478011.17481893 451049.982660435
 1155867.88438437 1246242.95318145 29119.3319698769
 -985057.632320569 1075073.79386127 874001.029038139
 813725.671759143 363226.862632753 1447728.14346551
 1441279.09829856 -349858.629410044 830851.069828403
 -1417374.98213090 -871302.378917852 -349113.626949045
 1037620.22968732 1305247.62122712 -331168.999492052
 1276561.02820193 -1081955.87441874 -299605.452364939
 -714025.011062767 -245768.168978976 1523077.90040219
 -1542911.15363012 -249373.728401729 668758.488235325
 -1203915.41858981 -1099922.38128621 480373.209106617
 -1107133.74441378 -1234800.23387691 373528.117278819
 571834.225164391 769843.597122221 -1403690.29878409
 -636073.566511166 1576123.45302393 35288.5082385417
 1112808.16483530 -613265.515582237 -1129408.42730765
 1160026.65369324 992519.490595008 -747825.663848396
 -957097.484590883 -1025350.89482239 960531.075747536
 -1283904.54643203 -1058342.31411891 348569.450463736
 1663020.13679060 -330352.378385344 123415.277515004
 339966.713463208 314087.516303168 -1635778.61149959
 1246559.08649115 -670041.633799554 941878.257983253
 1101346.17795459 -1009545.94968893 -811081.729403076
 -152211.641117057 539069.609312613 1605065.59760777
 -133791.143637308 -1044507.17535255 -1334580.34247521
 1362234.39856435 356834.052511597 952358.599654650
 816983.958130246 -1319251.19864806 -694343.925604227
 292294.536375608 565720.401185102 1576237.39699575
 1165626.50985744 -697575.684142779 -1022107.13939894
 1674397.48861217 261883.412933284 133454.592126551
 900554.302503443 1051060.75020512 987052.808932121
 1461239.37589083 -855702.869531056 -150173.517713612
 1253327.41663100 -520732.643723025 1023722.57007565
 -941640.488474940 -1247503.38076594 -668616.859974553
 709242.433885921 1016964.41689785 -1163081.48671501
 1153205.65776214 533504.323689015 -1129375.86635739
 -1452129.61725940 100205.456248380 878224.596112018
 -1212683.16030284 967078.164840258 -695815.619116960
 429542.798369721 892783.186799216 -1381459.79519396
 -360964.165302626 1660013.53213879 63717.6936453094
 -767659.685484922 1198832.69600932 -929246.347455942
 -977850.752393999 556434.308186785 -1274436.64680328
 -1508175.49500647 -499359.608976561 -605017.898235061
 -1494942.77559765 728380.525234094 -352998.453464183
 921132.948991628 734178.253391342 -1225763.59161513
 1042472.35493459 -233426.098500179 -1322408.27498020
 -1255639.97470212 -952106.118014605 -637857.502871297
 1026044.15943053 955040.336691527 -961837.480134061
 -784920.265821006 -696650.356568114 -1337377.45494569
 -7225.65958371189 -288436.676021426 1675336.40614931
 417487.524563607 1647656.91233666 30510.0977216347
 -169729.081836537 1689993.95251366 71501.6031021906
 1537668.13122872 -673722.256760449 267721.943346410
 -1561203.03256823 -317900.439259443 -592945.530228895
 231571.622564228 -994703.287159641 -1359021.69009062
 80244.4663708679 -212948.253568702 -1684699.93379204
 553146.376337891 -1549958.93401157 -426211.671850957
 -457483.790378889 1544263.34973816 544021.404170858
 1215796.06927526 -558751.012200124 1048635.88737948
 -565169.618771523 623230.261148613 -1477216.07884774
 -741621.431671301 740503.584082320 -1338526.09016300
 174459.913804105 -261006.179229001 1670760.16019049
 399867.665232319 -536984.572214587 1562611.09029252
 -1389365.76823438 822623.603448089 -531933.425447748
 -228204.071983591 -1604818.99222516 -512326.950026583
 -1103374.77845580 -1144555.27828632 602127.323092501
 1235053.67043529 867723.135448710 782111.879050162
 1040619.80706374 -473397.652588355 1258175.29767138
 1491701.78884692 7799.46139636407 -815331.185195821
 1358193.40296869 455646.376870937 915257.919592458
 846178.654624891 1469120.07968328 125171.386221406
 1037253.63663290 845472.081013046 1048466.42937163
 -138171.791409186 -1588414.49279325 -589786.363985414
 -640911.937090295 78442.9365019987 1572602.49097097
 619223.492511722 -1141135.64520435 1097438.70241833
 -1471991.71699497 847437.323393572 71346.8150498058
 -1167143.21427978 1208839.75952942 257843.272437971
 -474670.987900181 -1024621.43964082 -1270762.90419348
 -231189.243668508 1680629.74966128 109704.959621031
 1021763.97998886 1320307.19426933 -320604.556982536
 -182208.840333977 1156046.57622164 1233027.27143821
 -52765.3953565257 819629.191290017 -1488429.97881598
 314307.563866296 -449481.965665021 -1609091.89229153
 305147.118660997 -1669616.62961647 -96257.7066058807
 988325.492200737 -71038.5009064151 -1381363.91036365
 -58655.6516130387 211591.310052769 1685760.55003194
 1290811.60276670 -1006858.45114540 458302.809853856
 -33677.1922384822 -1532467.46245728 -735125.379260360
 380498.305857906 1544768.77116609 599091.381067422
 -1469524.87210093 39993.6407793826 -853754.741699250
 -14735.5788390962 -1476350.89704250 842716.376676091
 -1165729.10607698 913027.705155701 835138.348337010
 1031996.67539566 -1174095.28144738 668193.932968047
 756679.808233603 -164593.704285419 1513388.44330237
 -239305.864812796 1676831.34630693 -144807.938693611
 -394269.982748432 1617367.95357207 344488.147055366
 1253875.45493729 -1060270.54355328 440025.815127995
 -1055156.15298755 1260033.78706319 -434695.696173436
 1481669.17169893 376670.436212462 743488.969736965
 1441.79487538691 -608893.622337685 1587213.43174257
 -259488.907253965 250526.624970659 1661295.25286535
 730621.314422457 -1523934.40229955 -183892.447913239
 -102295.204215584 1696535.31491589 36105.6288926668
 -105356.011435491 -1406725.46876397 -948695.718544782
 -785657.055620467 -247175.896303022 -1487160.74021626
 1663912.67221627 224897.023294899 266112.660636839
 433116.249471708 1596667.40403872 391233.325937106
 1207206.54705467 985542.875584908 679233.091900105
 -1605867.50969985 324082.641294495 -454048.436735553
 -1401981.62973132 348516.872601192 896093.465776986
 -60261.3094531991 26703.2296323637 -1698721.72886267
 285451.476098963 -1636257.20538630 -362187.537905921
 -1377707.19024161 744040.906796266 -662061.951006375
 -284282.968169375 940292.153396828 1387455.89489150
 987522.877307853 845893.238598248 1095108.75975283
 -1016767.82763067 -1271980.60066852 488107.095029530
 1496564.72143396 -701315.680998936 -398058.224565553
 1448698.54948772 317295.287684815 831021.186929191
 -233883.524815196 1164671.69218366 1216074.97558583
 -1192218.80865537 -917480.242536423 -791735.004179851
 288235.792991509 1382674.23728541 -946114.200921725
 1560209.76259416 -554599.561728828 384921.839905278
 1269481.71094077 1113567.65972167 195916.443436753
 -445807.276198776 763223.490888602 -1452152.11856198
 851254.831265349 -1312829.82084756 664712.775370519
 -766744.479296848 1409486.42691293 -561650.172096500
 -1579941.15515337 -512116.573623818 -362660.393856870
 1134552.73761475 1216481.94580304 -350659.038249604
 470846.667276622 1004615.11070915 -1288041.88412075
 -1069786.40360022 1169854.96961668 -614000.326331569
 -759055.852696309 1511116.55687856 174243.978418121
 -1506021.32710041 -723552.764959657 313641.768006027
 272566.944231563 1608231.22588708 478852.362418753
 -266103.057223513 889412.936626897 -1424125.62335526
 -448894.956011455 -1268968.03832878 -1038370.56784535
 1586956.27351439 36770.9977808938 -608455.158311200
 1139133.23293703 950771.313433764 -829704.397463251
 523593.648694837 1536130.26119384 -506116.104951207
 -317120.707188521 21944.9542432714 1670015.83107931
 -1633318.50892101 169201.263058286 440047.248594415
 -1609578.26245894 531719.036842723 -128579.480784089
 153981.139806167 1549009.54247168 683270.990102518
 1466429.92065212 709184.031935939 -486457.908418924
 63861.3095495349 949082.173791831 1408958.75047256
 -279423.845333229 1517141.62007143 -714285.390657147
 -447122.474690170 1640143.56768784 -3251.15350842455
 -1419170.60002462 -816430.224587181 -457598.619322970
 -1306421.43699382 -1082633.90888545 -105673.309281084
 -1390445.80306884 -174371.765939585 -962421.402490287
 735021.051667267 -1355868.54229506 715097.580488570
 655316.965553261 -483867.667757257 -1492123.23712126
 714135.465138450 1497954.28278570 368976.292077766
 -991037.219185931 1209905.30281890 -666314.031368778
 -1381247.55450393 -336775.655962649 932060.808492580
 -281504.499219739 417995.737981455 -1623587.01027952
 -680298.100766657 -1097564.89957382 -1105687.92401690
 1353488.25111615 281506.158187397 -989355.263286715
 501880.527607905 -67007.0912135681 -1622845.02825597
 -275194.205830440 939374.798024302 1389907.60049514
 -924819.968485572 643530.481998411 -1273018.67410861
 890251.436646811 1320529.50573396 -594688.325120231
 972392.261479531 1367964.22635303 -270420.349147562
 -1414428.32896127 567826.984223332 -752970.795064227
 626324.691462143 -1572032.21167876 -162579.538408858
 -1235702.97782289 -420096.983792563 1089291.82261138
 -721553.281632093 776566.105375056 -1329024.43384182
 -1236756.98439223 214186.060605482 1146541.09956833
 -459712.918014400 1635099.56844706 71508.2811632325
 273590.573236742 1092082.72313296 1273775.30360362
 -288064.690994578 -1327417.71086069 1022243.09960770
 406300.324523282 -1650715.52514681 7635.53086366552
 -677446.219121262 -27646.0649286757 1558942.69147146
 -775107.606697069 -598464.985937397 -1389621.48034898
 1601126.78576203 -193498.695723391 -537541.878060386
 -988651.324441540 1225607.62298927 640667.240578581
 1309825.57515561 872922.114312799 642155.701533472
 -589810.114048986 -1400784.50976090 -761529.242103957
 -1623123.91782953 -502943.946131664 50161.0847093439
 813704.217648617 688463.034915565 1324350.44294767
 312933.557005489 689110.681576068 1522234.88904888
 -320330.874863315 725032.610529570 1503900.21087770
 -1339996.99300366 -248008.288316412 1016316.85397198
 900779.695520441 1369677.98461684 -450086.834504249
 1686002.92401305 205974.475756316 -70488.6909820058
 1668138.00704254 -143701.672045801 -294389.909662979
 54644.6033086145 -636820.849145116 1575269.23839175
 -1317311.53851760 -1067370.86824884 124135.974246525
 1138344.10766590 -857341.730058621 -926896.893102147
 599416.571266025 -1570196.72921053 255307.668643595
 -1620821.03974723 -318587.888477721 401797.106047353
 -1373390.11404621 815815.912652692 -581587.475194234
 -403890.814298718 52159.4368024318 -1650500.40995983
 1559206.01187371 587716.123070023 336847.697365456
 84083.6043937150 275974.476523764 -1675341.16996497
 1454243.81675386 615102.930856200 -629939.128714256
 1123239.77289932 -1257105.43054467 -219130.894837291
 -1689022.19294505 -159855.609625295 107936.165442438
 -1333622.06500818 -714909.127658521 774827.159380630
 927489.419844230 687962.390432181 1247586.11944340
 892097.392944449 -1297737.45301380 -640343.458268276
 -411889.358364612 632218.453749764 1523366.98900962
 1441863.90772919 -781345.727617045 447802.775250993
 1040232.37048959 -831294.201161830 1056819.07936048
 -1501212.47995848 -291411.263774866 742590.442546932
 -1017311.71905333 1061492.29166294 -853411.378537291
 -448841.325473020 -1114796.58955383 1202401.77497656
 -1120700.14641781 1233162.43725029 336662.420198684
 -881015.000027196 142677.509494434 1446877.91399674
 -1038520.32888999 879014.857656594 -1019219.50849716
 -1532470.12015960 724606.793249470 128375.721983283
 623311.691486938 -1177887.37765606 -1055492.23626430
 101240.320242295 1627098.70141508 -481975.324483107
 559589.380629617 129865.291272059 1599998.35350209