# OOMMF OVF 2.0
#
# Segment count: 1
#
# Begin: Segment
# Begin: Header
#
# Title: Oxs_TimeDriver::Magnetization
# Desc: Oxs vector field output
# Desc:  MIF source file: /home/martin/PhD/repos/ubermag/oommfc/docs/ipynb/thetaevolve/drive-0/thetaevolve.mif
# Desc:  Iteration: 1733, State id: 3475
# Desc:  Stage: 33, Stage iteration: 50
# Desc:  Stage simulation time: 1e-11 s
# Desc:  Total simulation time: 3.4e-10 s
# meshunit: m
# meshtype: rectangular
# xbase: 5.0000000000000003e-10
# ybase: 5.0000000000000003e-10
# zbase: 5.0000000000000003e-10
# xnodes: 100
# ynodes: 100
# znodes: 1
# xstepsize: 1.0000000000000001e-09
# ystepsize: 1.0000000000000001e-09
# zstepsize: 1.0000000000000001e-09
# xmin: 0
# ymin: 0
# zmin: 0
# xmax: 1.0000000000000001e-07
# ymax: 1.0000000000000001e-07
# zmax: 1.0000000000000001e-09
# valuedim: 3
# valuelabels: Magnetization_x Magnetization_y Magnetization_z
# valueunits: A/m A/m A/m
#
# End: Header
#
# Begin: Data Text
 -454213.341495192 -1567745.70679496 475251.132806374
 705138.770627702 140823.819496971 -1540437.58913496
 1231929.69008249 949446.733534532 686221.639759252
 -137223.876174072 -973686.327171813 -1386760.44942392
 -221230.577902206 983951.050210288 -1368538.40362305
 167454.593931195 -1533643.51844868 -714070.386790889
 -841061.042932376 -1117782.85606184 -966011.288109896
 -41110.6815581789 1146392.84358967 -1254628.77379256
 408961.358810999 -964085.262096094 -1339137.86236092
 -756015.758088850 1453356.98616428 -454085.503279755
 1013259.55303538 -732491.271568649 -1151851.38592541
 33540.0465981570 -1403119.00753921 -959235.172393279
 -720190.232488548 -1539834.96488748 -15307.1858305082
 -842137.057970122 -706742.678720847 1296657.22597297
 -1569975.07978973 -644040.639150638 -101930.878352331
 -359774.434050234 668521.158859258 -1521066.01328191
 828634.312210826 259182.630994114 -1461570.91528870
 1057074.72601953 -999724.760206594 -879285.748457573
 -734436.372827006 1206806.65627538 945632.544193644
 1506645.80598090 -177669.098146109 767106.320456375
 719295.435734791 1475537.56893827 442044.068824408
 -1644902.25551551 -356415.988630108 239299.420911977
 405225.767208482 -299137.290317191 1623671.44432979
 -366629.523119389 1476212.82311850 759195.952068877
 -1290104.67968808 -61220.3376014054 1105387.70832269
 742848.356800959 -95521.0601713524 1526123.20795598
 582940.707288981 367790.262884525 -1553998.21567232
 -85956.8969434703 -1503613.39639412 -788516.433596651
 -214631.865175803 1591567.26020002 -557536.383306545
 1566439.50538908 -629059.387102504 -201374.187657296
 452900.472775039 -631656.179422742 -1511916.54292068
 -685465.831108531 -1112235.68683816 -1087689.46455610
 -1408568.95592029 910024.631713379 278906.195866173
 -230078.475410124 459468.015174276 1620479.26188050
 -125301.148865396 -942404.721281604 1409316.48801792
 1342854.60407971 -496220.296870745 916791.649872218
 -223605.048392063 -366324.553211857 -1644933.76889397
 -898910.316136798 1332328.30694155 553950.833617129
 919117.558249728 1041582.46637712 979963.713538826
 1329255.22279626 678133.737935691 -814380.246655227
 200665.733502496 -1344587.95382118 1020694.12550326
 903783.027395651 1178636.26906624 -827038.562966183
 1518810.95193837 275631.575206862 -712208.204825697
 1025637.71262500 -583958.196372172 1223544.07657882
 1669884.99524868 -143375.609124302 284477.657034006
 -1313130.91620746 158173.669337149 1068020.73351999
 1279168.94392321 815440.290443610 -767322.582505960
 -481273.435466483 -358414.670358748 1590570.59082139
 -746928.743475902 918823.116810827 -1219779.29650554
 -1196386.45297792 963775.493058006 727871.042226380
 576400.185536337 -554740.227320292 1500008.70207686
 -1394668.16376038 -632198.708954775 738393.868737527
 -635148.868080401 1386554.11866296 -751035.013428105
 -962540.409702440 -416648.206656233 1337879.00483564
 -1643441.94970522 -432586.018389276 44360.9585471317
 134159.690825011 1690661.81443746 -116892.286147366
 1574165.05487382 -308876.554417594 -562671.888532926
 -758218.298506137 -1288922.23726425 808569.402151831
 365746.084439175 -42466.9810585219 -1659646.45549502
 -196387.836603964 317383.726280819 -1658523.25516591
 680493.612761818 1095546.73292893 1107567.51440222
 23372.7858858371 -1063063.43158601 1326404.86025366
 -545195.291712810 1227320.91290627 -1042326.94997160
 -165189.514394006 -1499330.81508724 784040.516340903
 -1068377.97689519 -797656.245415345 1054662.51124957
 888857.923605685 42214.7311992991 1448499.05354238
 -1064091.68733744 146320.324966806 -1317687.08100253
 146015.688802564 -69811.8369692172 -1692278.26495600
 -945231.770618273 215724.570004709 -1396423.93624219
 188911.136784098 714395.950990298 1530996.73664172
 -1088046.12445884 1031710.41297269 801080.055184128
 -304936.653222284 -1637341.83910592 -340771.682266640
 838906.636574836 1452567.17764265 -276196.034631111
 1319053.92363770 281918.667119867 -1034707.01730748
 1568276.05459109 282356.482890879 -592271.080811560
 -19063.1809766074 -1529862.78641023 -741050.909106913
 -373717.493240260 -1590749.59357869 468882.678050120
 235025.812095287 -1369083.26401608 -979986.675338003
 -927127.744318521 1328420.34924438 515493.473700962
 1667269.83407733 96460.5480654216 317658.091416986
 1077114.45854264 -1298711.69601437 207779.628053060
 -322121.996609749 -1583867.11511143 526879.854396374
 525395.351477129 -1100444.37245602 -1184475.37238057
 -1399731.96068512 400919.738289252 -877504.302944814
 467320.174902441 -890717.871379474 1370486.60253735
 437854.375055094 -1454368.36565271 763607.361956239
 303369.554840313 -580929.415532701 -1568594.25198642
 1312876.34161522 1073699.22621132 -116299.971024303
 214955.488345918 1563546.79763322 -631755.925687173
 -944858.371103291 291910.979574456 1382761.96019413
 -607802.291926447 1583621.38062178 112781.633108121
 808006.246944105 1495702.27633590 778.114972183822
 -475714.041647053 276787.153366423 -1608441.79947897
 -981267.230301908 748851.576434103 -1168903.73393525
 455783.117018273 -539474.968801887 1546359.76030072
 1640317.28124855 430351.488539372 118982.406889919
 1353867.07921220 -704390.840087446 748917.536332491
 237945.144143547 495193.424927178 1608777.66651809
 -965707.348269175 -453586.231985661 1323506.27034856
 1179211.87539123 955013.262113762 -766426.136116933
 785863.463113422 -1314040.50523638 738726.043903622
 -1441306.05270985 -510330.969320001 -743101.045736617
 1269165.16828619 1062640.22452620 -387318.381732648
 -1555610.42670363 357394.110630563 -585103.110586111
 -1569085.49650312 57773.2652158048 -651638.668657620
 -1310893.35146534 786082.424828582 -744065.213848611
 1629215.57553288 65654.4562584643 480984.512031802
 -1197812.71514658 -740310.127868121 -952462.920017916
 -1365623.67892764 947595.916696798 356558.475164596
 1489673.30298369 -756597.363306998 313741.741269093
 -131042.185416617 -1217437.16347860 -1179268.71349257
 869629.348532637 1066110.92204869 998575.133907904
 -921129.680478941 -268927.107381472 1403281.26997270
 -1222729.42272354 1175833.94508388 -111118.371094222
 517038.914015665 552492.558486637 -1522308.35713741
 -1539081.40945678 682864.069995417 234360.997125836
 -1153557.50136852 -808391.676494794 -951739.454057855
 -1098167.25420476 -1117167.75145742 660276.379174620
 1326242.10737658 -414948.834571020 979234.056448960
 -1577961.69687491 75123.9535678808 628007.384348285
 878505.316307346 687246.705685711 -1282934.28309632
 -882245.410843126 -933816.779509961 1113386.39175800
 1015115.50076442 394968.199564575 1305197.54881800
 982408.071153136 1219147.00059680 -662234.831965973
 -428477.848036837 -1357325.31913151 929556.190763245
 1494912.10729330 432207.171430161 -684422.933888282
 -903895.989342905 537917.880966897 1335521.01959718
 1378955.40667421 -296905.253209942 948856.815868608
 21420.4681443910 -1251667.30142036 -1150160.91487216
 -354104.526596203 -1659275.72466900 106836.575049212
 -750021.115004990 1419844.68088149 558130.279790682
 53114.7682163836 147333.553354465 -1692770.40541630
 -1623719.40826201 456428.007650954 212623.510141889
 1018197.41930520 704039.295863276 -1165162.08537721
 1695434.43850341 -102151.531335586 71183.7719036936
 1024993.86163959 -1098859.67505386 794918.233620084
 -712488.448984506 -972233.739495216 -1198800.13590707
 -1198862.60260693 -1174338.70536228 -271398.351429337
 -178122.483077825 -1402624.74417950 -943883.577586554
 -164868.074582267 1409283.67579560 -936342.906802619
 593602.934538815 -924993.402314442 -1296928.20224624
 -283592.891799433 409563.439729094 -1625371.60691274
 541349.474797938 1569281.22066599 366465.819144247
 -1515799.62273253 -371104.835887916 -674264.565659883
 -544559.678973076 886662.187917392 1344352.97468867
 -726362.493244064 -1430804.54094563 561423.097153674
 -138828.390024278 -521212.027452976 1612161.49952839
 -1073897.48462525 1184192.67533246 -578300.873425352
 198318.207411523 -1419732.44150001 913799.585883853
 -814447.568459829 885287.608603483 1201224.79506668
 1426489.52561441 778532.369069386 -499014.011450155
 1569241.36467965 618752.404185200 211251.039508427
 -1653276.84984450 -388038.995110082 -78111.4334921323
 -1433241.23130348 -553543.556033247 -727605.047031526
 1690924.75576291 613.339893990971 -175422.615880350
 1076461.88480981 1207989.52827131 521527.669580988
 -1339573.95069501 571941.139984892 -876598.518714323
 -1464795.76429194 857287.652293203 97114.6237082032
 920186.525554731 1414852.91382492 203587.795382380
 -22340.6139075024 -651194.078430026 -1570174.24803361
 -549004.861329118 700883.316802524 -1448225.20295184
 343676.030732660 1114087.63285741 1237212.80797364
 -1253100.89814890 -615638.511951055 969911.007083186
 1594874.62012907 482193.274426610 -337438.279046571
 -1661411.72603036 333512.696792578 135942.479332145
 -588866.341111219 -1578014.21662922 -230450.785250008
 116301.703324999 81518.9780720539 -1694056.83789470
 -406092.699542408 -292687.723566361 1624629.99352219
 -1152002.62117570 -1249752.63896198 31753.7747658574
 283695.771881104 -1603804.56310484 487162.839696200
 -511586.708083540 232715.171267250 -1604407.27035697
 -1477134.07846195 -806765.492787315 239174.316961544
 -1148378.24701573 -701552.621062251 -1038773.95118561
 1412030.79321756 -880075.557075801 -348763.605961275
 -16242.2743309187 516952.643895846 -1619412.28613768
 -1326818.05979649 866793.466361045 -614998.311275465
 1501239.79439732 38774.2426479727 796728.082739008
 -1203504.50120451 534731.775655811 -1075006.43890373
 -710061.722201415 -393210.159860846 1493719.55896901
 190520.219722555 -1156933.72454482 -1230937.20509526
 367304.820167099 -1525993.76100113 653016.240584907
 -1269959.53041511 -362094.294198079 1070556.17004295
 1519019.40039536 -535981.092504103 -543419.110540505
 1591238.91516815 -574774.913541380 166109.944368191
 672467.794980698 -1556698.75627645 120316.444932340
 -342117.557473289 1613384.58864378 412244.764666862
 -880534.604203429 -1432159.76691832 252145.221689343
 1230474.06567587 41305.7788097104 1172274.45862137
 -222593.384224787 -1488256.68029812 790913.547012173
 443429.836932782 1524436.89093881 607833.978371212
 1480214.65518342 714482.066046017 -434142.778218014
 57112.7195612512 129910.874511470 -1694066.49867943
 -541476.933330506 154064.573567460 -1604078.18944167
 128541.509345516 1692427.93880281 95732.7129817971
 -395824.144784834 1558639.94275475 -551330.005763173
 -458782.299629330 1312815.86465220 977769.557239502
 806534.716186632 -1187667.20516690 -910466.013290338
 293954.997750187 -628486.328517789 -1551965.01061200
 230995.039504373 1635745.14152262 401222.037916059
 -376364.320517224 -280232.906762952 -1633958.20515973
 938027.316721385 -618906.089309603 1275562.62319808
 -1907.79042737255 214356.624205690 1686430.43081973
 203196.119012757 1525958.62389851 -721222.306482481
 803394.325792330 1446100.76774891 391599.446885098
 -611364.832601596 -1585937.86021892 32158.1246696432
 967843.583641248 1397432.84805841 21453.0364243148
 246980.481886392 -1646311.29426783 -344470.265673753
 97746.6670295205 1408406.90239496 -947014.037050594
 1112451.84362746 391543.507704442 -1224395.59668612
 -1408387.42004338 -815596.045461873 491169.996732810
 106059.096606434 -518464.845940051 1615532.62782012
 1115571.78959011 905769.120034370 908340.180473637
 -780935.627869630 1214341.79405938 897504.068138135
 553746.652655093 -1114118.78144406 -1158492.11715353
 1543141.91056597 681377.694262512 -210801.996234174
 1350344.00049631 -1032028.44431052 -38579.4045786059
 1117710.18261754 968555.103367231 -838227.271934258
 614667.848796014 1584844.73579704 21227.3190225937
 -1538532.22783535 662035.343972652 290908.554777982
 1637735.32068093 -163614.223870907 425503.707552872
 1394323.11276367 135715.910842338 963039.069174902
 -1369431.34294594 -778154.295509485 -639635.591049640
 1077172.35685765 461656.242371185 1231492.27667146
 98968.6964284115 894394.722176912 -1442311.78254542
 -1052829.10007613 122969.471137030 -1329070.87666579
 1370055.45417859 401978.037113653 922692.641215778
 358321.116691631 -1013379.02822241 -1317068.30593248
 1426562.73104749 -786898.885271544 485498.628983354
 -1578890.64063709 -3552.64911735259 -630152.143210541
 1527947.49745249 649666.390604345 365116.455323246
 806161.245422878 -294043.795437661 -1467529.31580356
 898886.818613346 -1340437.77340448 -534068.406623736
 -1542190.61737250 -558530.103433876 -446869.358142144
 -1484675.49571899 787099.330505098 257319.482997291
 31797.2256297660 -1504377.31778348 791099.122854299
 -784484.796236854 495109.725624585 1424587.64702814
 1349314.54355928 741421.875506360 -720863.277647053
 172997.623881924 -12191.8044502406 -1691130.74066893
 -501751.861181797 -1187260.10443768 -1108448.69714897
 -871901.040442465 -1240388.37302221 768911.737292813
 507699.343349156 365814.730539460 -1580639.41482021
 867954.937072763 -1002457.66205769 1063829.33922357
 83914.1495075066 1166950.86439051 1233362.92128905
 472308.761959761 726581.346151463 1462533.41185792
 504673.327438792 320627.152917871 1591384.00814625
 -37844.4106679378 1641483.81090213 -440566.339076672
 -820461.283558971 601094.790393186 1362177.79131174
 1611042.78449651 421014.968955942 342472.688599783
 -869780.010575453 147561.148690038 -1453171.85515019
 -517538.687736426 314154.335860877 -1588540.44958127
 468673.631018042 -2551.06140929448 -1634117.04589177
 111078.632653427 388693.683221466 1651235.52468798
 1144627.51794727 -368537.691392912 -1201668.76267158
 138146.363602574 -1693397.18564518 -57632.9235104981
 -810058.281699292 -1344865.18087077 652030.080235435
 -12341.6151018622 -134457.382866623 1694629.42755321
 458248.402731696 -1064944.12538433 -1243343.23949715
 445763.508866285 250233.490511830 1621319.86183772
 849939.729273212 295103.672510016 -1442399.48664511
 205868.006411236 -1671010.21192264 -235251.430572732
 -1138788.35860327 1261747.89914544 33960.4668950751
 74733.3728131099 1667494.76136875 322298.221831515
 109946.030483701 -1290075.90189822 1101642.42734309
 221552.029368927 1490470.20410208 -787028.124634949
 -118425.368065513 -152726.852673421 1688978.96395160
 -1688416.73004043 -62958.9553882425 -187843.327419467
 -26231.6381063196 1581755.03482842 -622384.857589893
 638724.316914849 -1421589.02964026 -679055.136044293
 1003924.31550678 -258343.439852504 -1347365.81365990
 -665283.647304139 1508786.45690259 413474.420124191
 -1089350.38576772 -1020961.79876461 -812990.001470523
 -596391.518538075 -1589884.43171122 -81145.8589093834
 -309486.459080122 1499872.76956499 -737970.058175460
 700353.859914716 526528.330827036 -1456802.11001325
 1234136.13845508 -680261.747468852 950869.048129028
 -611049.970097116 -1562148.52742301 -276242.488249771
 -334370.113466817 1548566.64279769 -616553.306725777
 450432.473156137 697219.733749910 1483575.15144874
 -977898.358686734 -57537.6484359249 1389389.87296232
 -334713.161060254 -1417130.62543763 -877329.977978535
 935942.358387738 -1419151.66553499 4522.38707678473
 -1133175.82778951 -444860.184440499 1186596.79740556
 -434434.501217242 -1234790.15061237 -1084693.48117466
 572706.916975056 610016.756862885 1479826.45725619
 508582.981634908 -1495503.89951830 -628340.224175488
 -992836.175381670 1031616.54690800 916538.940252471
 1290980.66826715 327092.239306538 1056588.65276225
 -705172.940641997 -291738.802996184 1519085.11763254
 908722.745799404 311348.025788918 1402599.50738054
 1134841.63789760 -795588.143516978 984466.334004932
 97661.2592538804 280013.387935486 -1673933.92373111
 -1417814.68350132 365776.232360811 863718.282247163
 168774.954356895 -1645600.04675506 391810.542101120
 -1620114.71720744 289093.019762459 426208.316451569
 -1051409.26864410 -896818.566521153 990078.284052439
 532642.503835941 1358080.80719097 -872873.693180699
 -558179.620909292 -1589684.19584421 226582.586013808
 -687274.947986239 744448.429767545 -1365082.29835682
 -1353429.94010852 -1022014.75499484 117103.534492682
 502182.504821556 1608096.95639937 -227677.207182053
 1529540.15455342 -86597.1862520161 -736890.658742480
 -1330997.07249807 892387.321331102 567531.198903698
 -677962.511961270 -583230.172742320 -1445755.64947128
 843968.665215335 -593436.030871273 1351129.36812076
 -1323349.85578317 874496.942125430 611555.604513561
 191338.231085567 -1530073.37935765 715726.997608805
 1578462.39821902 262373.394556363 -574122.512394024
 -1452959.69461414 846830.697698187 248567.687487293
 -1426778.06696784 16565.9908470386 -924137.389984181
 365066.806875323 -1620662.39108055 -360804.158311580
 -996342.960872085 42569.7406890105 1376767.41735789
 658450.204057653 1529180.27755245 343585.517042045
 1073390.88906874 -652716.541480081 1145335.37260599
 -238627.968194223 1683158.48155548 -5849.68061950390
 -948686.803852541 1295523.74376994 558221.799578236
 -156177.519501915 1370587.99675633 -993527.616903377
 -452929.633308185 1328763.24544653 -958771.602010471
 153395.774217733 1006953.95623109 1361070.70590866
 -81839.7322346706 519213.241158780 1616700.30260192
 -787189.633605779 -1356573.73732482 -655774.485584916
 -131645.641302032 1580592.72304927 611879.129379219
 31846.2085801125 1327496.76365351 1061479.23271656
 422914.898540761 1575289.13413489 -479173.384558039
 -344357.366729551 253271.384084925 -1645378.86518054
 -1548029.41083117 -273545.942411064 647130.250098191
 -1341828.93979957 534575.584651938 896506.575887986
 -511106.187624658 1472788.27210904 -677986.113803129
 -1473862.04645948 -666756.442007293 -522653.341181357
 870751.932565385 987515.338217613 1075455.49825114
 792431.958600148 311159.860436857 -1471472.43679318
 1205682.02865637 -1075426.28142618 528950.998668983
 303280.103093632 1613592.43260148 440840.833542836
 219758.080273782 -448781.640893041 1624900.43539650
 -1236437.82194439 208704.828563580 1147895.38155690
 735292.435269735 -1449872.28574396 497207.592124959
 1486998.13816850 773606.516423925 -283495.140751744
 1137727.21247817 -1235944.70656133 260801.595680843
 -1382380.09163776 339146.856644595 929518.526911467
 -913660.670923381 806467.797498794 -1185256.87933261
 1149990.99433634 -912420.786696624 857326.671082404
 -1118793.93532666 -1256032.20947957 246339.641605120
 1168640.16277607 620903.213551813 -1067126.68851817
 1621103.85372862 392304.509406777 -328815.248012216
 370441.173464212 -1653703.36227899 134307.582025827
 341451.492858449 -974622.745282311 1350378.23679261
 -816054.893443806 1282606.84847805 -760903.465049040
 -1502634.66992507 -782447.222734566 140944.642942347
 186720.740103257 -1526570.51768725 724374.088260602
 -1369470.91269120 -1002072.45193577 101981.470690326
 -98103.6557128575 -1213307.08896932 1186701.97631611
 -1076930.35105935 -609857.434811222 -1165459.10617776
 1312412.20220139 -868522.440117603 -642839.779824698
 -1262363.51057783 -728694.620554283 -874895.717864054
 1399317.01525880 739747.810828737 -620229.850282373
 1586309.26888753 -477508.781317157 381586.513397054
 -383883.335746301 -241242.417854181 1638424.75578348
 -1534803.61466378 -514084.243983263 519706.892876328
 194186.228188379 1507536.54733522 -761331.246718912
 -1120222.17820323 45658.2933147669 1277895.76715520
 318358.199455798 -1499935.20376221 -734058.881394461
 -277605.335667629 689314.505106871 1528980.31074901
 -606467.864557876 -1224371.71980813 -1011489.30839267
 -636047.528316919 1150651.55199644 1077703.36717026
 278397.888223519 1370002.87590149 967257.326596355
 -979781.177707875 362150.126322992 1341221.87941206
 -1361310.27629922 -1007075.82305323 150441.411399243
 1124817.96391746 -355438.661288330 -1224111.06771818
 529024.383232437 -1295329.92462077 965532.800233880
 -49482.1723817311 1071404.45330753 -1318955.65204034
 -2923.26176340720 1026849.17812504 1354832.91217943
 1217601.30523396 -1179474.30317547 127622.214529026
 -286595.613621054 1634342.31895747 -369848.805213562
 -892139.095331242 1122217.29601080 -913628.028858444
 -1651922.22615269 100214.419313040 388728.734343731
 -1134312.70769911 1223910.23454198 324620.422856759
 -1191892.28513610 1012100.03002525 -667117.913007845
 -409227.657455436 -1526034.90319452 -627495.178153288
 -1490556.90667032 187720.743730779 -795613.618756340
 458144.739816772 1280865.81549574 1019551.94084100
 772609.273848519 1117503.33488640 1021890.99540071
 379217.322631858 36699.9518640457 -1656758.08003133
 -1346961.39983752 927015.427007665 -465120.828857980
 803145.456966696 -916590.218489466 -1185250.92124967
 -858280.821004723 1329275.34454016 621595.600606296
 1116485.72767496 -65249.6226228549 1280313.28456971
 -597064.952779525 1059883.44090879 1187501.80372483
 -1651515.37014171 307025.421942752 -261213.270081313
 -1113969.26607120 1143810.42823360 -583755.238531409
 1459716.46532393 -702114.815096069 516006.421747659
 884548.641513469 -1446001.69944709 -129045.674056922
 -256498.133137717 385239.537384954 -1635787.02969925
 -1138861.08081462 -1128402.62989200 -565422.800617901
 396117.790536495 335111.112473335 1618885.80150589
 1423063.38913261 546058.715032545 752801.746974205
 -1051927.03093302 -1335320.89161207 -19173.8889322000
 -4700.49969431590 1547999.49224527 -702620.436160962
 -368453.412797311 1087091.86344871 1253982.99949466
 1140457.53077284 -31177.3055031530 -1260311.30921098
 -435780.233333056 1451637.99098506 -769962.811676669
 1242016.00015915 -1118301.99791874 311121.996650209
 -1224225.19041236 559165.976121506 -1038559.62482080
 983225.211241024 -1201430.76730836 692699.282044452
 1454093.72257741 -296972.584251622 829107.188585332
 751220.766334195 -1177913.17427961 -968601.008716595
 689913.565875059 -1520771.97639464 -318232.411036830
 -351056.741803172 -968228.772022794 1352513.29348801
 -587263.465584540 1082247.29383013 -1172118.77255976
 -330042.264133989 -1505602.65822110 -717100.229704923
 729179.865541104 1049810.97722583 -1120800.44422975
 -157935.365813630 -404672.622022541 -1643562.13427139
 354183.250299008 1584001.90093228 -505462.365612456
 -754572.747479867 1386501.13766406 -631058.288921844
 793636.877271008 -421905.419567751 -1442960.95719007
 1145987.45289658 953439.649349365 817108.066813791
 -883553.884390335 1445897.86710321 -136791.415246502
 796488.699060540 -1839.63307253367 1501866.29498734
 855140.050644698 -1432433.92655158 326907.540211911
 43419.6841061202 -1108270.25015432 1288352.35229148
 379254.193307384 1524979.57815157 648539.546272571
 859376.538211892 1298770.98721448 681664.058272752
 40693.3035681378 1637548.86807224 -454728.226218735
 -480963.548469146 272973.851941907 1607532.06537225
 -1495577.88039830 689688.413342104 421398.500430401
 -1683482.01189853 176775.622655809 -156967.177615974
 824959.179619350 1142882.86283369 -950400.501790082
 784784.223267944 748718.436538201 -1309020.40690645
 1511486.74355064 461038.260986814 -626778.705746231
 -59463.9817423655 1690271.36234230 -171600.572612254
 520564.979015123 1561961.74225142 423423.686590514
 -42437.5063500393 726884.008067783 1536176.64897957
 272205.992609777 -1668876.46337488 175371.741112092
 -1424347.72526311 -775396.140074277 -509896.443893975
 -1177085.98007601 1116429.38296850 507990.185292072
 352261.248387906 830889.404783312 -1440671.65235630
 1457008.14435950 -821761.718819340 303042.810099775
 1153760.24585838 -631781.249364071 -1076888.92093325
 -134084.745056403 1035241.13625365 -1341751.49373921
 -708990.880015844 -1245630.15924514 914186.763431464
 -1388681.53024658 -904249.976519320 -379335.718746369
 1013649.76598644 377939.696493624 1311364.07520182
 433043.406619320 1636889.06060076 -151880.253058461
 326818.727468581 656044.779782658 -1533882.25307412
 370839.264449425 -1634396.69888861 285001.176496901
 567010.822563997 965294.435263100 1279337.86794005
 -560318.578210878 1483544.43562590 612485.916928036
 1434386.30904975 496332.378541715 765630.515602500
 1419375.37491705 289689.605220220 -889636.711082919
 -404809.746882253 1596152.54937964 -422405.146675565
 1691271.60758798 -103376.473640976 -137526.921234752
 -1584719.68218883 -556423.594399693 -262785.677841568
 978691.642279817 201491.266220036 -1375341.38997148
 -881055.408958773 -228878.792914762 -1435742.26952415
 330794.698147838 -138115.643281087 -1661775.83830020
 687044.060826121 1030193.15163039 -1164762.86376987
 1027865.66935207 -612766.544735182 -1207480.57020422
 662483.506862620 748948.589414225 -1374842.39589469
 -1266151.11428363 -1057514.71110398 410516.737292128
 -217669.337331608 -1587383.45848850 568184.666550139
 -43490.0856633465 378316.519939805 -1656799.69314025
 171590.040706144 1675210.15221152 -232868.640778278
 -1650021.78139680 408997.877628463 12200.6971748113
 24318.0440457985 -420836.312293070 -1646907.83925190
 1545761.12653240 -49304.3592700358 705826.905025772
 1127573.89059872 1239094.34164181 288482.813615155
 1485212.13502254 198376.546198263 -802989.202854080
 -600977.551374357 -1495344.24572890 -541083.699171889
 772959.772682953 773815.375050496 1301438.80192246
 876996.351167209 -1119413.34160957 -931553.095999311
 962286.684955868 1307227.78693571 505133.496236197
 -1175912.16241016 785694.697743343 943352.759170103
 -1527870.10898392 -626242.650090913 -404268.565783426
 1650628.60698545 406642.218293115 8204.15156677496
 454867.399232361 1448638.31769851 764553.904974156
 1265795.17287174 -59360.9999300376 -1133242.62716415
 -920558.513011212 -1401270.11973370 281094.424818602
 -962057.106224227 -1258717.44409208 -616503.463333150
 -1141370.20713992 -1258131.28913904 66179.3739977486
 -551814.098119755 -1360048.76525031 857769.524556217
 584557.401334851 638038.387436471 -1463283.86197009
 638951.456428733 1575293.72319467 -13810.2132889881
 -878680.871575312 662372.449662139 -1295832.80706125
 890427.390807286 -699543.139500899 1267982.04154371
 184985.820677451 -1618207.94830199 487014.663229526
 186667.740826594 790678.599570665 1493312.59511050
 1644602.44806671 -401122.067172455 156153.370249480
 -267667.190679899 1470934.47921202 809139.068948465
 -1194511.89662353 -371200.616074418 1151239.08526892
 -203346.787492326 1268219.26586558 -1113674.08953604
 633189.421962198 1518253.52121340 -428925.869164227
 -256352.877663769 1585279.30363996 557828.586184249
 818321.506535508 330326.945892474 1453008.61000849
 943740.794884299 -220792.974941113 1396640.17351922
 -1099254.53712528 -1187415.29384509 521233.520173328
 -586920.923878748 -1528899.59566779 -456059.048238465
 -1623423.14938975 418253.041890139 282066.784600928
 -1631300.37035208 -445389.242757066 -174606.769987447
 1525250.41916294 -451119.357339086 600085.397487096
 -1010132.76670532 1092946.88609496 821644.021339889
 454801.272638491 -1056465.91398739 -1251812.91533088
 1410891.98358111 -540409.649967492 779320.999902199
 -64524.7131701739 -275338.666886977 -1676312.97194385
 -807883.318008131 -1338919.27488181 -666798.110250874
 -1229545.63274166 -841360.451040666 818736.910387317
 805900.554003438 465680.147121419 -1422556.25464652
 237143.978523149 1644916.40289017 -357788.709929573
 1659353.02224876 278446.325104953 -242930.425409127
 -589688.642614819 1351623.96848727 -845801.367096203
 1092636.74356860 672282.563212009 1115428.66280408
 807656.840338301 719816.175868008 -1311318.07781846
 -770137.987742918 245971.788653132 1495454.90036379
 -1016094.56690569 1228344.84645376 590525.841344166
 -940711.793700000 -1402473.04809066 -195270.762207305
 -951340.063045109 1405839.88448526 -92554.3280230675
 -177887.933170927 1141342.75161671 1247274.07034869
 -1155796.68384234 208909.284317780 1229020.31575759
 115455.558290256 887600.121142320 -1445280.60908878
 24713.5311667197 -1046361.02617605 1339596.14969478
 1395081.06301679 264768.340886397 934690.619015829
 -988877.269572869 652695.945526380 -1219061.01094881
 -69215.5166070694 -1356751.56649013 1021975.73312060
 1244748.07439529 1062418.20006573 -460293.166860314
 1548648.08555124 -128024.268938731 689419.243770565
 1056273.80817255 780905.254948042 -1079107.32782388
 -1376238.05785519 944391.743964869 322634.533244633
 -46746.7502380551 1589960.59722611 -599866.685698229
 1448885.85722956 39915.8019102083 -888333.553052023
 903767.994382707 785446.250545980 -1206763.27414813
 469495.395291534 1633882.54115435 1384.01988843461
 1371472.94775282 -593773.691989899 -810243.640075540
 548527.982549994 375847.779139975 1564562.39865183
 -197349.511321967 1114029.86625739 1268854.06074439
 -1198389.65253126 726160.721396549 -962576.151484576
 -1253437.94210453 -759777.938692200 861179.893616538
 -513857.539691022 -1098960.09315163 1190897.62052112
 -602881.954242491 -944808.992255238 1278228.97690609
 703552.199876929 63092.0954812494 -1546296.76632143
 573639.409167330 -452673.010849133 -1534934.84340507
 -895382.945606943 -320586.446634171 1409082.57776140
 -1368892.59281295 264812.436402190 -972629.139430120
 -733020.601581355 992220.014595988 -1169692.36993854
 -854018.249142819 246742.399656151 1449058.66628752
 -613484.292211625 1522577.86511618 -442033.559662459
 -605079.536829914 651190.212655469 1449079.03892487