# OOMMF OVF 2.0
#
# Segment count: 1
#
# Begin: Segment
# Begin: Header
#
# Title: Oxs_TimeDriver::Magnetization
# Desc: Oxs vector field output
# Desc:  MIF source file: /home/martin/PhD/repos/ubermag/oommfc/docs/ipynb/thetaevolve/drive-0/thetaevolve.mif
# Desc:  Iteration: 254, State id: 517
# Desc:  Stage: 4, Stage iteration: 50
# Desc:  Stage simulation time: 1e-11 s
# Desc:  Total simulation time: 5e-11 s
# meshunit: m
# meshtype: rectangular
# xbase: 5.0000000000000003e-10
# ybase: 5.0000000000000003e-10
# zbase: 5.0000000000000003e-10
# xnodes: 100
# ynodes: 100
# znodes: 1
# xstepsize: 1.0000000000000001e-09
# ystepsize: 1.0000000000000001e-09
# zstepsize: 1.0000000000000001e-09
# xmin: 0
# ymin: 0
# zmin: 0
# xmax: 1.0000000000000001e-07
# ymax: 1.0000000000000001e-07
# zmax: 1.0000000000000001e-09
# valuedim: 3
# valuelabels: Magnetization_x Magnetization_y Magnetization_z
# valueunits: A/m A/m A/m
#
# End: Header
#
# Begin: Data Text
 -47309.0728545142 1651893.71596592 398759.329393013
 1483152.69889690 712122.878719973 427947.517060712
 89358.3593674479 -1696537.08577256 61457.3039556936
 1370671.93831413 -220707.050389345 981094.712770703
 315695.840020397 1670427.52132217 2834.18476799862
 -1106082.96687819 1178514.43947843 -526957.480564399
 1445276.17235932 -824489.423493107 348416.383309378
 -184255.162349360 1237463.70154551 1150970.73051615
 1477799.37709196 -795863.602401752 -269648.154895823
 780020.625438470 790364.229799496 -1287203.25051797
 1051688.51279951 406312.023154673 1272345.00505386
 1156871.70681691 -232781.413175199 1223707.75418262
 975137.189895684 -225633.638120514 -1374116.77896416
 -685508.113727392 -157783.036017399 -1547637.92262888
 1616405.62276976 -352588.062408908 -391042.863283596
 130965.013540106 -930969.499021406 -1416384.11355122
 711553.262144651 1451822.33404928 -525265.519034890
 987708.116991336 1361220.05588498 -248017.408836419
 1168072.37089968 737603.211196895 -990731.264860869
 -931152.550365828 -1308231.79779365 558107.956571851
 669916.391954160 727772.585894116 -1382591.44038002
 677203.690697615 1434413.41690182 611435.450982005
 -1062026.61672759 -1284210.30808248 -336010.937287540
 -414778.777509290 1627956.71497913 260222.020363875
 200922.848830056 -987961.765679438 1368781.04836880
 1250268.30791983 -416156.890942635 -1074077.55787571
 486364.822347636 966419.229775915 -1311290.63593929
 1578231.76880822 -211224.593876812 -595456.677572823
 -511533.139048497 -1059188.97195411 -1227376.29492588
 1682259.96807822 -151129.919918918 -192772.267473236
 1379369.92553342 684820.639723779 719971.735516224
 290840.530725533 364142.402851933 1634873.72482786
 393045.811331226 -129438.985483076 1648866.44068951
 -318946.967369175 1655807.98181852 215807.227293422
 1436522.25726321 268374.945776009 868549.764185753
 1524850.63182035 -491934.032722895 -568182.592206131
 -314456.655380974 1539840.79185859 -648079.738623982
 327531.412996311 29658.4852288763 1667885.95166293
 1646041.22483873 417285.770815344 80130.3413598498
 1131979.05396592 -1266641.33323279 -65139.4989901294
 1384481.40387268 -260585.404465583 -951475.953090901
 -461558.342517827 -1156185.49227097 -1157669.64368698
 1137336.77683227 1262392.26378305 53205.5298393542
 1656744.93158380 118606.000017239 -362117.175001808
 1626900.11689032 421233.986791977 256433.106352523
 393359.600945717 -198006.757039095 -1641968.80253880
 966874.765506663 -184780.686492815 -1386004.79282205
 664935.604840413 -64157.0421225719 1563248.06584291
 661105.872268387 1000539.61132715 -1204931.33074776
 1680230.19519381 -170046.615564985 -194706.547639927
 525511.601809960 -1428210.84820899 -757661.751325283
 -903178.226971491 -1419451.20868277 243777.268205362
 1060884.00933440 -1174724.32695101 620119.242088221
 1417847.33259449 830600.096015172 435674.674446739
 1544997.92429315 460266.768727556 -539570.121054677
 1123997.54676511 125127.500009419 -1269240.96357130
 1288091.85323456 -15806.3263987848 1109310.38833887
 1623157.14510063 -100957.672953067 -495144.858178579
 1079306.04064405 -1246924.18306826 412648.218594029
 1206973.66372872 1173921.24419138 234783.916615725
 1363548.20251458 -563009.818037157 -844840.957940029
 -319469.086994969 1668696.45690007 58237.7642407266
 1229143.33823055 1012485.17429890 595046.574570753
 1247257.24428371 107268.891121883 -1150149.01277151
 842030.108356405 -871162.324307359 1192502.20181294
 1664870.98868010 -314134.580998419 -139728.508445119
 1472237.69081609 415183.239012876 741713.596870972
 1213969.90573198 -1150120.83575178 -305776.276298082
 1529080.94234100 411175.251654193 -618745.815498302
 317085.119781777 -531865.742049832 1583216.93372916
 1006244.15171407 -907317.560421902 -1026765.57776899
 982712.560053329 -1196901.68207611 701214.936917923
 1134745.06736816 1229373.83415563 -301651.467719146
 1690407.34612981 132504.178580673 122334.160433799
 915067.280178636 -269732.074717347 1407087.94345455
 -83790.3591131373 109925.904742239 -1694371.70396176
 1668239.78780817 113563.844472849 306723.431779044
 -1000138.29622334 560565.827911699 -1255184.98278347
 673919.952204304 1266066.66154660 -912637.445287661
 1543708.01711305 110039.859436199 -703460.579731493
 -65742.3269923652 1659933.60193017 360968.674021400
 42785.6489770150 -1636675.40923358 457671.271822607
 202550.789349512 -1566922.72513010 -627476.175806509
 1282766.66950627 -1031784.20129494 -424182.783198425
 1500248.55071949 -465534.534449884 -650024.525151639
 1511984.54798244 485342.526549582 606914.622154388
 813398.259128254 -1261721.21943042 -797773.674976893
 1244804.84317666 -1134309.47040066 -231954.581250963
 647996.905254711 -1471725.06472618 551475.606565735
 643815.652942280 1553065.73583277 251968.698866994
 1607233.64409285 -467907.147976192 296416.791307089
 -2569.99921272941 1152658.66724946 -1249548.47521765
 589128.248088656 -1056881.38784681 1194122.95821117
 417748.328437227 1251980.34110471 -1071462.34631705
 -992792.705945350 1098112.42480782 -835770.151120751
 -465354.174809196 1558253.87978387 -495267.945789100
 424067.276305820 -1181458.70920204 1146438.94892716
 630901.210435943 1540418.56313442 -345071.460745965
 -930336.516928384 -98505.5385502777 -1419426.16015927
 -504682.467816452 -1622598.71518098 49689.1957242114
 -1045189.30857955 1076736.24639268 -798885.702047046
 1508845.57058870 381781.261933431 -683833.395024975
 -1072428.54196489 -670044.057202235 -1136194.51846373
 402418.195888756 205554.865093314 1638843.12643221
 436001.927120330 1150022.78027585 -1173605.52333140
 407600.667406704 1650343.53095102 15097.2109250127
 40301.0489820367 -586825.694104608 1594995.74613527
 963223.114502816 1388818.44614631 182714.409205296
 6558.33178105601 -1651117.93222971 404680.815154045
 -116088.446148662 211067.487194221 -1682846.98903980
 1639417.13414249 -351261.312041931 280939.407955885
 951034.162253419 -369786.016215989 1359703.02803151
 1192808.13081040 -884391.923490349 827683.326361985
 -389376.251133685 -1625864.67634304 308139.885884692
 1646248.84389572 418239.781491657 -70286.7636885395
 438561.087644358 -1626914.87009776 225415.567028924
 -943296.253403037 -989682.758704664 1010306.99069071
 -56521.2238961117 1688099.28412903 -192681.494109698
 1004385.13178453 978602.819150625 -961013.542776911
 1285318.83656124 -1085422.88007172 -244566.268724220
 487670.208763075 -322121.163642253 1596375.80895563
 1689154.09706237 -74181.4372237949 176792.394488026
 510560.404105753 -903720.646223125 1346334.67880369
 1251031.40063095 1140332.19657541 156725.607635958
 1077534.18566406 -1297782.11925525 211380.343614593
 1468372.55981292 44313.3735793783 855522.267688259
 -1674155.05882547 137150.411013618 -261523.619904364
 -1398199.22042717 -574579.803651787 777751.238656897
 723535.921876971 -1309435.75555242 -807387.002517692
 -1030050.97488127 -123628.663682619 1346740.85950572
 -1481699.14465062 -833097.709083596 -22712.3724272721
 1377452.84941701 -76707.2772252578 -993347.694039531
 1664695.01037676 325224.651981017 114102.796506216
 176966.211460246 -1312483.06543573 -1065866.39075723
 1671266.79990980 -6968.38017629439 311157.074798191
 1399558.36459726 -430414.541828378 863701.167226559
 1354903.37814203 -1002235.32044982 -223072.181910204
 -99005.3388548300 -627229.193647660 -1576953.22743395
 744451.806423304 -1039363.81765133 -1120497.37280831
 979681.949540230 -563993.482271417 1269698.63735471
 472756.567369065 -957356.708715211 1322864.07475878
 1684328.80886383 -109735.371166949 -202471.262025492
 1401779.16335765 930160.276395363 -244575.218271245
 -1092065.86284876 -247908.140435105 -1279036.24073222
 1542373.98967876 -53130.4809318292 712923.297387866
 63736.5097174325 -1103201.83642068 1291852.68720821
 -323011.761367655 -1640013.99663790 309866.895375984
 1183996.36152646 -1215695.19353358 -101182.075050249
 1503167.23310239 350107.470626429 712680.172545073
 1355693.59331371 -878633.469917360 529242.956107238
 53994.3175156752 1683829.47292407 -227602.547850987
 1309176.73584786 -251804.936576636 -1054822.51977779
 -355584.881898960 -1549103.61522551 603189.340970276
 874522.360669030 1351505.95778937 546481.735055899
 1610191.70366920 -515792.345401207 176751.050521360
 1144403.20014568 349115.286533449 -1207667.10322216
 1249387.59913737 730089.464649787 892188.321336442
 1640679.37679936 -128406.120315151 -426242.948106917
 -137788.121261516 -1245386.63735541 1148924.08675935
 901493.212159724 898270.920767778 -1127128.80423355
 1573172.64115888 -292951.723874483 -573852.880613277
 1437853.31347026 495583.639927063 759588.510168001
 1253926.57169900 -980261.673747022 597289.882527629
 1136478.84794159 930392.229429178 -856029.279638936
 1682604.33275170 -144840.960409955 194586.113566044
 1128054.63052112 1261028.14443109 165229.445053046
 -163929.015122934 1340467.30453472 1032605.77350422
 401477.828194472 820734.234946400 -1433600.66582546
 1590198.75096483 456351.917402968 391166.026020300
 527444.148479561 -540692.614403399 -1522975.43216044
 1673219.92697658 224534.055083161 199798.733920943
 1644798.54598338 98984.0571996331 418138.612844166
 473625.947601287 1390718.42914599 -855324.916387044
 1526571.35581300 98269.5483621223 741567.927755747
 1241920.41988367 -40769.3644758954 1160160.13101477
 1472478.44518093 495874.710628998 -689866.291274001
 773724.062961865 -1191884.19601319 933146.900379452
 1323407.51843962 1052257.29489684 -177051.194499949
 1690926.43846939 163950.614361112 -62353.6345037774
 1657086.70469557 53450.4034755970 -375774.809546180
 1534745.01461012 -331375.519341413 651726.940758619
 596128.939121665 -894780.109076330 1316813.89890259
 919559.987788715 -1426981.32187298 -90187.2268320867
 833785.003468748 -1438891.72023645 352694.181162110
 -1134107.82664935 -187320.051774630 1252481.79058054
 -957607.580088282 1388627.58173988 211426.492636862
 15238.8002588817 -1656228.46089188 382981.806745941
 1425234.81136281 556954.089189904 -740613.175020709
 147007.697454185 1161913.12427204 1232212.08748072
 1343700.99906774 -1023699.20404695 191069.528543895
 1491798.72015655 -186952.468381309 -793464.147334600
 -517513.278659408 1472768.61042634 673151.265730113
 587911.489095225 -1541388.18889876 -410466.237482745
 1157990.74485253 -675413.932619878 -1045405.88024884
 -1488141.84687923 493056.789072016 -657517.183286380
 -212246.716997115 -1685512.34088610 63241.4408801457
 542731.120349075 581465.949444167 -1502444.76791715
 553941.629466181 266316.210180633 -1584999.79411335
 1564320.14002844 409810.775790397 524364.021980416
 616912.141023348 1140321.81803823 1099584.26760479
 -1417745.30388992 -878490.931863818 329016.619536357
 1316753.84667326 -1016607.64992197 350240.193854598
 1585126.75103599 592670.406721969 161601.275199535
 940723.632066317 -377388.093683100 -1364777.37188825
 1593905.37213878 -554804.379737955 -204102.339258315
 -929219.656474844 851630.851025528 1140734.72972567
 1533745.55768365 714122.524343277 -166293.669486404
 1689125.86522836 15766.8796718600 -191324.898855172
 1415629.79923108 -829248.167838964 445353.508647552
 987283.107764493 -48652.3770458750 1383078.09299789
 1387165.25540182 455585.109084693 870755.282835709
 -356487.104357680 -846521.199304603 1430495.99913966
 -838834.785082005 -1450218.77098535 288481.749194250
 747926.838952479 1525118.99639933 -67952.1184103944
 1332644.18590995 -538758.564102752 -907633.562274080
 176962.658181933 1603650.49247511 -535713.837410915
 -1028700.77063274 1006302.76865944 905057.712131086
 1343771.00030656 -953315.362893145 418890.579515730
 1239306.74806400 1087710.39323075 -413527.368696248
 252004.831792383 964568.788135416 -1376989.69411839
 1151938.39219498 288831.060436000 1216394.08051612
 1006682.84842621 696417.409827075 1179657.76137583
 586865.630388262 99451.3403581856 -1592387.56675941
 1054629.77800604 -1228494.62821160 518224.835180802
 202147.396045701 -1301218.54199283 1075158.93534212
 829310.055869251 -1047468.95400974 1051215.30697563
 545789.279792233 -1130077.30708575 1146751.64794897
 1058982.16608778 -1280924.02014008 357477.868596353
 302576.203537795 1623414.57712983 403698.838015458
 1152232.65892298 203882.512792170 -1233203.88447686
 1600149.49705034 368766.538072505 -439923.660977180
 1683878.69894247 -145257.898672380 -182900.711100615
 1394810.72065445 10698.5847942972 -971796.580479070
 486112.667652289 -1319120.05681582 -955833.013687117
 833152.274409937 -847109.353244078 -1215838.40673502
 1282824.94031811 -37967.3938924439 -1114862.61462965
 181908.681148041 282212.357735310 -1666512.95130415
 784606.268630213 1122596.94434626 1007059.63267852
 1365330.71381341 -844322.410982866 -559456.618720198
 998116.719942530 -1315401.14264710 -404330.121675188
 1381100.55157678 231819.752564693 963753.531124608
 1572261.34902591 -589382.458332821 265749.069930259
 1120240.58619173 1276138.82419369 -80812.9348208642
 1270863.67208261 1127056.62331750 -68182.8044074270
 1621038.46493932 512054.422037447 -5879.12060328886
 1071902.05258673 -1316232.58619851 -92508.2087682786
 1303692.11608651 925430.306827559 577897.580596189
 206265.728324679 -1577569.12024235 598940.831949599
 1247394.11393173 350827.891359286 1100421.60791801
 1651176.99081330 268958.959965579 -302118.557627600
 -470205.375869851 857385.859387388 1390610.07929097
 1236403.81036791 -874643.799056664 -772207.124079704
 1474622.57812824 -73656.1687173898 -842652.372502616
 784520.648433754 -941394.912722584 -1178262.69162743
 733464.250011491 893000.646291001 -1246827.99121568
 1249026.56929576 -408295.016847647 1078530.39290075
 1506079.12897720 -510244.581519304 601145.676429147
 -602582.055638518 -1548575.21173128 358900.654546452
 1414645.92223329 -706257.807698716 -624481.243732208
 1536393.64179209 -465194.815321554 -559542.993217498
 -15793.5934458825 -1383034.27443377 988416.287880527
 810331.146888764 -1306119.50868969 726233.613517122
 1173625.66055579 -1219654.47033399 -158258.591802494
 1564987.47548116 -301255.483688026 591658.123526590
 1632805.73360357 -305459.922178312 -361441.104820868
 1275162.23581142 231330.851784407 1100203.30365489
 978172.863385545 -45619.2698174983 1389639.06520990
 1205373.42808548 -404847.715213452 -1128349.78014440
 1635966.33992165 -340253.889248868 312796.140472333
 1504612.27989179 418742.717897261 671413.749789835
 429432.485757444 1518618.55612981 631969.478024369
 261861.043633921 1328613.52453710 -1027723.16128618
 1583954.99702982 -587657.196126016 189065.034381238
 1032421.99451077 -1321089.03456601 -280764.292601230
 -60151.0100229164 1241215.45423817 -1160071.57199612
 50920.9033786816 -602848.671810903 -1588704.04433769
 1048786.74396234 -305294.412723636 -1302628.76033374
 953318.834671445 1207837.08060896 722712.104621679
 236377.573879214 -1582310.49482741 574820.963888758
 1012344.73315714 -1053819.85256584 868689.737240585
 505558.470302004 909685.303687537 1344203.58627732
 773864.168911287 -979889.565140674 -1153668.36144694
 1074070.40655890 1311386.86019631 -128985.521121026
 617022.768965673 1583202.85755741 52455.8328500121
 240274.674589706 431861.428524686 -1626580.39681518
 829491.976630985 1273520.78091409 761635.005291109
 1523244.30721611 -738666.597495803 155236.716912219
 240463.244576332 1622938.65981252 445249.968549997
 1536214.58957445 -526175.031193270 503174.493915745
 1581883.28386211 -513734.768597676 351741.188619603
 -441844.763298737 -840148.224091247 1410292.22741310
 1509460.10235342 391498.949252798 676948.131053752
 1599374.28006973 -521050.222593065 245984.913738936
 1671048.78744842 24137.0848461248 -311469.663213441
 1429881.73658631 902047.012036904 178183.634075144
 126404.121760219 1483195.71787850 -821067.878112954
 1428878.23263796 346599.361204416 -853332.220829677
 -544751.856962603 1530773.68907627 499977.326653532
 -108813.875354590 -1571198.37652096 -639918.121440717
 -1639361.36665791 439245.778749289 97762.2389291823
 -851634.010684483 -1024004.62633380 -1056472.44975552
 1195794.34972719 -1175250.92265662 280822.260434048
 842387.377680340 1364015.81876284 -565547.833599946
 305645.511613688 1485593.89596736 -767848.681378653
 1649148.44161093 351442.927206014 216326.804740227
 1452588.56554003 590472.492855655 -656756.191020071
 -10827.5861369520 -1304436.39109431 -1090104.79540606
 -28199.6109009563 -1699660.50461351 18946.0022691193
 1500901.60683879 628720.841158817 -491939.498801708
 299802.549108758 1673221.94802740 -21136.3238829828
 1329074.99791147 -1059268.88737776 -38846.8037307750
 1206698.37594344 364653.547477297 1140573.02256702
 1415073.77072888 315424.158883994 887735.221441317
 1360844.18936569 457208.162905880 910529.399877830
 1514420.29977247 -770125.984172650 58626.9915582286
 1296054.33503934 1093384.34083016 121465.401876909
 158894.791356032 -636781.204409537 -1568203.47627171
 -1015627.50245740 1310216.70276813 376607.180015913
 1501169.35569348 -674392.180870119 426246.116590000
 -372074.513565388 -1513897.97920144 -677992.230726038
 1420785.29674857 -588385.673067064 -724687.132680377
 1009114.93917003 -1348225.30805583 232326.404572644
 -483207.080345286 -1573481.71669695 -425048.473382260
 1542511.49965836 -590751.239403367 -402083.631307114
 1403697.95420509 293981.323365731 -912801.750038076
 1291952.45668449 898915.027455159 642503.403167793
 998554.361175116 1070158.72880023 -864667.267190581
 1571913.05232669 -458242.714392407 457277.782787748
 -1610008.60023810 -25069.7909301420 545200.708677165
 1251768.69329192 436926.337866081 -1064035.01529469
 -857497.866381410 1466949.22418990 -52510.7874628480
 1356497.06771172 123166.247329420 -1017224.54787932
 -219999.870157791 -381158.729217023 -1642046.91780479
 1497929.36712001 -3482.37197807611 803862.851613915
 -421656.257204301 -848925.039330065 1411216.59512596
 1545078.38523985 -269445.108931765 655844.582761316
 1698810.38315989 63563.9871862252 1703.40868470544
 1106712.63577728 792205.790641467 -1018625.11606824
 58233.7482978077 -1698329.02251625 -47826.3717857222
 1181777.31607101 -709755.076288624 994811.593671150
 841511.474103801 462487.089493306 -1402841.44898975
 729962.690425648 -1528740.02205464 141804.145055556
 -1184761.12152550 -1056762.18212837 607943.069164312
 1086569.94360534 1307301.06975659 18156.8352630920
 1066035.24402848 -814288.086193362 -1044271.88565655
 1584259.66478902 226472.893738524 -573438.177072531
 -206256.366823803 -1216909.50911651 1169012.21454973
 1575632.92670030 142777.782879335 622089.531348904
 1290248.21633179 -1103266.65761473 -89789.8794311092
 482929.274435273 1614105.52429003 -226809.771283829
 -819195.477421823 -409107.116889069 1432323.33524325
 -374280.534648313 1579688.58203634 -504478.012570815
 1364739.04997231 -502827.723841810 880142.946126793
 620898.353035672 1302794.05879974 -898450.263260962
 184102.152913924 -1495.02938340744 -1690001.23141363
 1570353.21927587 621597.685026048 193925.461660349
 1481767.60290278 468077.652554885 -689396.897415749
 1093973.83114019 22008.9695951523 -1301052.21341720
 840179.209840473 -342676.104348175 -1437592.42584976
 1612013.42745761 137473.790683301 -522028.415482854
 -403278.632124859 -1570796.97227698 -509865.881146173
 933549.021275271 29522.7759864415 -1420427.62243419
 -315766.238615095 242687.551080738 -1652693.08557315
 678742.513960052 1558016.95800292 -43494.3481213488
 584142.158225524 -940177.075484538 -1290288.72959387
 1461431.24443311 499457.608979264 -710465.210004972
 1603173.31061883 -447752.889628169 -345474.580756797
 58832.2382347475 452416.129131975 -1637638.05947637
 1632454.58912268 61199.8619111985 470474.857303062
 1071810.90944385 1281025.07408930 -316537.729112440
 1161845.20442344 970734.719819114 -773168.690969811
 1074479.24051656 -431273.094955990 -1244788.28692515
 -331882.732701562 753114.593958931 -1487505.38153669
 984624.169133412 1354186.58317940 294438.352622807
 -262543.478055405 -564795.183539598 1581795.60082238
 -383792.920306580 1422384.17844753 848248.927629565
 1051890.27437575 -614617.033372533 1185652.88046799
 1622909.74883722 -251304.411381566 439329.079334940
 903484.803391756 -1390943.57116250 372815.224852560
 -382967.073701238 68240.9526636308 1654895.58366692
 1110374.47596641 -1165399.82880376 -546728.234268621
 813227.271803909 1488745.18440159 110901.669579210
 1265539.57064671 -1033133.40035669 470154.200443618
 968473.319962974 1232115.39093819 -658749.642833400
 -150315.036461628 -1675681.75688189 243918.099916270
 -1420084.72165525 932040.013421977 68270.0278430672
 369235.572240956 -889593.317212304 -1400817.19798234
 1561749.76183441 666047.047990930 85551.2201708336
 -1001291.93173988 1360941.22661569 -187759.008120540
 1528118.90656907 696407.004599396 -264329.134472618
 -1258021.20266921 1097479.22542763 -320814.593479600
 1472473.87826170 -790813.359751124 -310539.704186250
 1279286.80779218 982736.701777062 -536333.700590624
 -1006002.43405233 484809.268403378 -1281764.04847029
 1420998.63585404 925193.338291539 121573.696505117
 1173590.36310028 -1200319.28694457 -268177.681821257
 262081.337385889 498219.618752544 1604085.59125880
 1699882.44101515 19331.8711732905 -5095.63394496421
 1669913.10740196 -317002.754518823 -29991.1212631802
 1279737.73488672 -729794.193346664 848334.701202593
 754605.064918056 1036866.92552531 1116009.93488037
 1456243.94928983 757442.286933428 442306.163332378
 968598.322243136 1000738.96359687 -974853.228382022
 943468.945618251 1312139.55178340 -527405.105492581
 1075481.17020272 212351.752243085 1299325.58885704
 1213746.74775856 489874.701094186 -1084823.30797850
 165301.879770122 -1192969.92509897 1199790.83441816
 1450226.76344828 627007.347252432 -627458.461628979
 684407.478484011 775713.802155812 1349019.82955779
 -476494.274580077 1507759.32603370 624191.493894958
 639567.527374545 1553317.68723432 -261069.991483173
 -907763.914530158 -1081325.60267495 -946942.245586572
 139351.923962273 256077.233504084 -1674815.06196025
 1190963.57546545 656393.526808407 1020173.17151481
 840933.611259825 -1471169.48645504 -135981.629557549
 1273676.06117154 -729178.712029078 -857932.221753076
 1268856.52039975 -990136.027040876 -547388.142541234
 1551768.56990947 -187819.640625994 -668384.685668535
 1276819.86983629 -1095339.34334296 244872.911764981
 324973.402918940 -885063.603639819 -1414586.40772043
 -35701.6100737010 -377405.647136875 1657193.52296204
 1555775.58443670 -489714.895671426 -479313.730064333
 1413513.33060167 -212466.570448142 -920238.023911954
 1200506.59805048 1054013.01325949 -581240.463076089
 133387.572264105 -680641.109824714 1552074.55851260
 -1069671.29402068 239400.694221205 -1299419.34353561
 1570690.41139346 638864.780333695 121587.104603376
 726582.970302979 -867655.744205208 1268562.45286285
 1034857.91453912 535286.805976100 1237956.83772240
 -141671.395569644 -1563038.35856711 -653330.165632349
 1256511.38617079 779115.508891680 -839141.323155778
 672927.577205309 -1350125.03772163 -783792.611826467
 1354124.34450295 37477.8078797731 -1027104.02274598
 -280634.168352798 -1233011.82166302 -1136189.38174592
 1537219.71187857 -455784.603693649 564991.993259888
 -522387.780595700 -1469510.43198203 676498.408704926
 31788.1459880093 1665660.31703619 338474.846961396
 -310679.383534269 -722999.134962660 -1506900.98264286
 1539479.90756349 616531.913526394 -374018.734573278
 983685.391173155 712105.517540746 1189650.69792799
 816133.792483986 1431555.09432147 -417822.503807496
 359597.049106303 -1652307.83450042 174839.304284176
 1654591.54700383 -69375.1632941864 -384075.382316260
 290464.081175641 1551827.67528169 630445.464553920
 -54080.8250636213 -1689995.89799451 176037.294691151
 1239227.55009628 1062048.17552654 475782.252656742
 -764222.679201754 -1075167.01726221 1072371.00929910
 851038.698759090 208588.221451167 -1456785.53228891
 783587.585061498 -641305.387360162 -1365546.73910501
 1437717.24783750 -804851.171294958 -418549.527936291
 657618.682962566 1045260.64175350 -1168318.38923285
 1078524.18738710 257293.918062001 -1288637.03848264
 1055003.33505035 -1297245.18357151 -306794.551342027
 194520.076145185 -744785.515147708 1515736.28194440
 1610669.19475490 142449.387817229 -524836.085819275
 1225927.67383274 -681789.825338190 -960345.756796148
 620714.626220707 -916098.330337174 1290533.68880829
 -64459.1262547130 -1672364.28627590 298400.259770962
 1488053.36326107 -789321.952193355 229495.193572926
 1086095.40015117 -564230.021741095 -1179847.98357098
 1326647.08900597 -1046137.14129744 188691.766725524
 1565046.60152708 659677.820253690 -73853.2904741766
 1239539.97355504 -609043.194120823 -991265.373981300
 1048437.75381181 924152.480057570 -967843.205269057
 706274.741431848 -82039.5096581927 -1544164.98745128
 874369.040462522 1444388.02938268 198045.453511709
 682266.263625011 -1546740.85351429 -179180.014479959
 1348473.23999820 1035091.17298048 14359.1304285171
 846782.839802312 -1448105.46753866 -275589.145470162
 -417302.204578265 1456020.24485098 771922.221883925
 1005541.54642420 -1362862.77728742 146598.938260961
 1654187.85964038 -200265.104044919 -336981.324586761
 522435.543059383 127623.661896679 1612691.32330782
 1479968.19838614 -261428.138254026 794575.018670186
 -191567.497643797 -1179116.75229599 1209539.40750248
 586407.413637359 -1531938.66571286 446419.387711884
 1604344.35907265 -530948.795771461 184858.199116539
 1361202.33799615 -593448.934894988 827614.980957831
 -580134.196256604 448241.752343220 -1533793.87330566
 448892.600175372 376513.595306633 -1595848.66013575
 273439.298584182 -1244565.37228191 1125294.62102446
 1668708.46419704 179324.976599769 -270655.896452792
 -328215.388204214 1418995.64662543 -876770.217220018
 1274998.82815050 401681.268980845 -1050252.42030894
 978727.911532688 1093730.38025059 -857814.391639456
 1048742.19517389 1261392.54716547 -446126.271382049
 880544.799741687 -1454169.38496222 -5679.39138256632
 986352.816379672 1334251.02488542 -369976.113029058
 1434781.45771669 -866755.760628614 -283084.121789777
 1460858.51359897 253131.389594506 831755.314288628
 463669.970369318 -669277.095742022 1492339.88343569
 1414276.97680024 894650.057068066 299034.961636391
 32262.1651555937 1205307.69731230 -1198412.49471924
 -52312.0004362844 -1528767.36931714 741710.041135689
 -848965.174380164 1459954.09057967 -194402.124703796
 1499007.24385846 365284.409449477 -713823.916013609
 -13192.7525767449 797476.942694230 1501284.94202484
 1591368.96184956 -150252.728977298 578765.016821801
 1596248.79022274 -208121.843909663 -546511.754493975
 1563752.83898512 250920.157398934 -617831.800069306
 -171107.857161080 -1523721.17911473 -734163.380682356
 649846.742857568 1183867.66579615 1032548.57545773
 1617702.34604328 -400164.551816192 -336017.039859290
 -1442036.05246737 -864092.750745510 -252736.506055986
 344981.405412896 1664480.36103395 -22202.6496534754
 728743.108558327 732589.106399291 -1349906.17559660
 -763503.676395846 -637864.074488846 1378474.35906749
 684946.814028856 -351463.548508383 1515691.66917999
 1140146.63953163 526677.629771182 1145720.87118256
 -25565.4924746915 1459957.52411875 -870557.541672902
 640178.693343610 971975.143947645 -1239126.93463455
 1598481.76084204 509626.231332147 -274111.591497934
 1008623.25586354 791783.899602654 -1116135.02053347
 750132.937659835 213908.354076343 1510478.00112884
 599877.777961512 1450353.50370096 653162.587577011
 102008.434367506 381827.936106527 -1653421.21267586
 -719689.520031349 1538194.21071940 -77495.5796569295
 -831444.692275003 -1355374.58118189 601381.300319296
 280150.246347700 -1165522.09776328 -1205435.22393234
 1686935.95205989 87985.0819672242 -191064.698463685
 218017.513622470 1685602.73461574 -34810.6996454096
 1659762.05278762 -117328.402771973 -348459.429531183
 1384090.52846738 605266.672321464 -779708.704827516
 1216918.05789466 -1170549.46375036 197292.658970479
 1075295.04250114 -1212921.34529787 -512408.412980578
 926192.404429653 -1006418.32552992 -1009598.82330278
 1480062.71680215 461230.005304625 -697625.427101778
 1416422.81003026 -901172.804463119 -267645.287128408
 628069.041262572 -749512.455801107 -1390597.12282404
 1699704.87495616 16002.4811437279 27336.0320367456
 511021.726069807 -384084.899670130 1575225.56649199
 922979.618105214 790920.362540264 -1188508.98384553
 -259672.051049864 1323777.44533908 -1034496.83475354
 345711.529413600 270385.722362303 1642368.74652836
 1699436.94857936 -42264.5119112341 11303.4877878570
 1697502.00170617 59852.3928755074 -70033.1726441744
 439809.675963645 1275879.00024931 1033779.58272138
 1340321.45567265 943422.422363831 451101.461363973
 1518890.45085363 749075.438907259 -147843.786245982
 1151750.79122413 -1243076.99798808 -135017.376613270
 1465282.91089527 265118.239166845 820157.491156030
 -71977.5672681046 667369.004187589 -1561869.98244407
 1666255.43845061 332028.773266006 57876.6581381339
 -1229303.89287851 -641251.811299195 -983670.703771974
 1085183.99606343 -1014773.18365069 826202.808293008