# OOMMF OVF 2.0
#
# Segment count: 1
#
# Begin: Segment
# Begin: Header
#
# Title: Oxs_TimeDriver::Magnetization
# Desc: Oxs vector field output
# Desc:  MIF source file: /home/martin/PhD/repos/ubermag/oommfc/docs/ipynb/thetaevolve/drive-0/thetaevolve.mif
# Desc:  Iteration: 356, State id: 721
# Desc:  Stage: 6, Stage iteration: 50
# Desc:  Stage simulation time: 1e-11 s
# Desc:  Total simulation time: 7e-11 s
# meshunit: m
# meshtype: rectangular
# xbase: 5.0000000000000003e-10
# ybase: 5.0000000000000003e-10
# zbase: 5.0000000000000003e-10
# xnodes: 100
# ynodes: 100
# znodes: 1
# xstepsize: 1.0000000000000001e-09
# ystepsize: 1.0000000000000001e-09
# zstepsize: 1.0000000000000001e-09
# xmin: 0
# ymin: 0
# zmin: 0
# xmax: 1.0000000000000001e-07
# ymax: 1.0000000000000001e-07
# zmax: 1.0000000000000001e-09
# valuedim: 3
# valuelabels: Magnetization_x Magnetization_y Magnetization_z
# valueunits: A/m A/m A/m
#
# End: Header
#
# Begin: Data Text
 -1129477.45231326 899475.903379907 897342.623502780
 956179.743632304 125280.478588849 1400008.96409695
 -239104.316752840 -1626016.31451688 -434626.357501608
 730062.997718518 -1153081.39881186 1013612.99669860
 -42539.4097305000 1077319.87237204 -1314371.44339493
 -1394418.63427231 878673.245972967 -416569.321008476
 1473243.74065157 -21447.0590183550 847993.457693172
 -1496784.70372652 458496.208986624 662885.191443592
 1609935.70850268 -123035.660365024 -531948.532065390
 1143060.62274057 914536.159762623 -864312.458099829
 575901.243335400 -621163.260582208 1473938.24891941
 1218892.35315154 -472472.479014847 1086770.99151673
 791884.814593631 703065.246792643 -1329893.86763321
 -465545.898442862 -745791.799125820 -1455012.58028915
 1043652.70798370 -553572.160783113 -1222434.81949926
 -928911.642697184 168996.533947509 -1413705.53213013
 1185047.65141973 1010924.27417795 -680950.934900869
 960157.978841603 981296.903590230 -1002573.21062905
 -163189.328080859 128882.727901327 -1687233.97477920
 -1208636.37956506 835430.897266245 -855133.508807119
 -579505.794791487 302011.721546942 -1569382.66648110
 394646.954795869 1442846.25845235 807742.815220537
 -971905.687493132 -1245244.90810791 628302.835780507
 -808731.535219599 1416362.21006752 -479449.052386179
 -61078.9134375084 -37476.4312123495 1698489.00009299
 -81694.0162545181 -1474664.09677756 -841838.398615446
 1124565.97841468 1076128.85490170 -683592.018560918
 1640943.55776422 444188.000694532 1122.61797064181
 -216563.457078115 -872355.925440309 -1442946.77947856
 -105824.253555231 -276396.089354614 -1674038.95687913
 1579768.77840912 578340.165715936 -244649.258088834
 -35820.6150823955 -11696.4549943039 1699582.32412428
 623822.102394706 -125972.829637713 1576380.92818865
 822653.406298893 1487609.07402467 -16143.6050589359
 605952.399819551 1029875.86856800 1209205.26979262
 1264491.39785283 -1016399.30134744 -507931.063212938
 -625594.808045675 1009397.25946168 -1216449.05718963
 503876.617778716 -1395370.32359568 830090.365011167
 1056824.85057699 1328031.53262670 97229.0262837681
 1255789.14504997 -407546.436565419 -1070933.94997894
 1691800.41125396 -105169.758214497 -129424.458422755
 -1392462.41759393 -974420.088110671 -39419.6331141896
 1078684.75661264 1140503.93375861 -652449.210998569
 1688470.18501609 15687.8565281141 -197033.818085329
 946412.156322444 -812737.415521217 1154886.10857391
 513122.068845771 -1595107.58564375 286945.173657282
 1206263.35212362 1169496.77713624 259241.226643139
 -838454.743194910 820868.259865899 1230109.32179164
 -592963.102809311 1565438.62845168 296305.010518013
 645909.049689187 -96449.7762910532 -1569553.73918290
 581901.115493603 -1387900.51170693 -790647.368547410
 -790416.028282603 -1129104.52703028 995171.075380349
 -145703.796328171 -860386.889015629 1458939.61662077
 299233.553968736 1628309.32343441 386093.288462531
 495149.198599482 1417099.90198909 -797906.723188123
 190709.607867100 -101801.298315890 -1686198.78458276
 769747.332325257 723024.923890332 1332187.67589688
 192914.013712162 -913055.783570820 -1420955.07297076
 669967.473224023 -1487839.81734820 476944.716644491
 1072745.28839771 -54328.9848260905 1317674.43157568
 1628938.25637931 -183400.864618068 450471.175283464
 453328.730751609 1606151.08735644 323684.640443244
 682751.675383814 497905.243943369 1475106.95131380
 1419604.24554608 -760451.196985506 -544460.983938123
 1110899.53395684 369439.169127581 1232646.31008607
 1600697.26269697 -567086.140677206 -78623.0389025248
 953735.504614366 1183138.55114637 -761952.594345119
 1157159.98522920 -924653.071563845 -834264.625782439
 1672526.24180494 303640.013174851 -21417.5832675496
 204369.760030797 320870.886666199 1656887.10396182
 583063.655249175 -1134363.65612293 -1123946.55993730
 1326089.57796943 -1010723.27387264 331549.234432917
 1270592.13868060 712528.118504320 -876298.634863567
 1223868.06729215 389927.438441810 1113599.36539709
 206753.838828576 -532929.406591367 1601011.89805692
 -932320.177226285 71985.7655014116 -1419717.27350974
 997185.259502817 -1037283.59989076 905353.130898640
 -983730.320625598 1225826.95421862 -647783.092240724
 1415870.68958923 738071.678858509 -583575.519730831
 -479635.149107529 840100.506315427 -1397920.33500810
 659850.984302680 1565932.36868593 -49522.6737611626
 -759536.844877969 -780591.550990124 -1305289.47432960
 -107066.827620397 -1413812.39482734 -937907.888151009
 847201.071558899 -702315.496650001 -1295763.59244837
 1666165.14495855 208701.490074635 265211.986467203
 1187972.90999875 -1158359.26856905 -370032.660760183
 716586.189239571 -1536846.42797679 120860.623058521
 732526.433702396 -1455626.32219414 -484310.885757070
 -344847.218657047 -1636315.06809803 305864.992602704
 1588250.78843030 119013.367375331 594386.449573428
 1069561.44683107 447251.633794504 1243384.20752428
 275888.973549631 1471127.89389851 -806019.847192032
 -219481.909133981 -885411.377116704 1434529.32519179
 1535411.88372981 -130914.832165873 -717893.901645821
 -289353.087663917 1071868.42127132 -1287389.94797252
 -175562.251643715 669175.900498497 1552862.36028497
 -884926.808010766 -1228056.12032003 -773810.512857239
 1411874.25110874 685543.051432628 653178.248021609
 -1615996.33978620 -266216.206288601 -455724.435714086
 -788588.500742198 -1421717.19743700 -496838.391239100
 -1480193.78485653 834211.627909082 -55832.9574120625
 741896.306759520 -522472.476228887 -1437571.69615983
 -1397921.65564800 337143.654241993 -906724.435026821
 1163144.19035352 -688680.731121225 1030928.92239436
 1082967.97030970 1276144.61046731 -297716.825958031
 -902778.887444191 1390635.98060180 375661.882336633
 159908.281073057 -77436.6434878348 1690690.06854882
 1206225.43669629 730254.956008603 -949604.072807036
 -860925.031003222 -1285770.59574834 -703990.103695408
 911648.169620677 -781914.307087700 -1203124.11296542
 1557266.80996085 603203.457962145 317908.274344753
 984142.573128120 -477340.658428863 1301387.44867448
 1602883.48501165 -441716.258172667 -354473.244043687
 -1092945.82238193 -709922.314571319 -1091549.23691585
 1175877.23057375 -901858.284323438 833045.241037598
 420537.286991291 -1182713.47536635 1146445.47425373
 -1279651.76408985 -999398.628080525 503680.200973307
 112646.108866295 1681500.66333164 223307.799623163
 1426850.67835076 921520.283809684 -69982.1992887593
 -556159.319437679 -1594461.55772284 -195905.978333126
 1242621.58220699 1145250.47183329 185183.585123040
 647095.010392829 -232355.263142709 1554760.13558831
 1541617.06131756 -705738.573600092 -123894.721386789
 1546659.35363690 705549.578485829 -6681.02581578458
 -597916.054572732 -1586458.26336644 125086.251364811
 1081990.09685882 -58899.1793383203 -1309896.30008360
 -232014.493088857 215600.230146133 -1670235.25760824
 -1565500.12588538 -655335.082317121 -98718.2138071558
 558808.915508547 491463.470698762 -1528462.05478477
 1124080.08183696 394550.451774371 1212754.67866426
 -670939.610241445 -507591.139876815 1477224.17869720
 984229.527251998 -798602.368483613 -1132928.28313961
 1313586.57635676 977063.789319569 458079.314110341
 -30504.6009341350 -1691728.26018395 164696.578643422
 1051326.02432717 -246843.699843210 1312928.70271776
 1623940.29581213 217591.227276238 453290.164740033
 870062.992197895 -566340.617129032 -1346197.86621342
 -126530.872463334 -693484.883610680 -1546954.63880398
 421571.748861845 -1149825.53773754 -1179058.30785765
 779504.252673598 61631.6305293580 1509494.83675237
 -926335.536805516 -1393047.10740022 302195.681331018
 93573.4519374179 1694705.59769110 -96004.9282430727
 1574520.12756834 585779.966993823 -260284.840416983
 -1462496.81171910 255597.715608144 -828114.052221894
 1208891.86378632 709687.231765626 -961729.948967001
 -346955.124103841 -1504289.73294494 711852.892959297
 979876.692089356 -869038.496928030 -1083795.99517487
 1665337.38606814 -299200.990139194 164712.349456441
 1530052.46460910 -734506.976212555 97154.2970676946
 1079782.88278216 -1312727.22514919 28568.4861822831
 255491.609496097 715452.092903647 -1520806.47691838
 1044024.37291311 386987.198396432 -1284622.13006030
 289291.378843815 -919152.706900697 1400524.47301851
 1424949.72616307 903195.613746660 209179.256181363
 1376675.75797426 -994224.969452559 79250.0316912671
 874278.928538869 -1313347.07397840 -633052.776935137
 1402480.95942499 960381.397517784 -26734.4300882894
 575345.210656899 -1535498.12378314 448579.313424759
 -384927.924879506 -1635314.59096307 259955.152346029
 1270201.89530137 813855.513918144 -783725.939112539
 1695118.85661312 -86825.8248439482 95043.8745779905
 446970.531039692 437308.383949761 1580815.84054226
 29308.0610275723 -1064326.64980587 1325273.48878328
 139761.336045293 970094.939197571 -1389022.16609027
 818455.805551818 -1241254.90308010 -824267.165388823
 1161579.25179366 1241201.19391715 12378.9345714048
 145976.187014757 1381411.47637113 979996.574368892
 -95145.7710254201 73949.4054676129 -1695723.67079279
 -180397.798936438 586299.989992813 1585468.05577196
 117861.040597664 -1440409.82156145 -895169.437066827
 1641674.87526994 192596.935398766 397253.098644216
 1389777.97045695 911068.533821367 358428.960204302
 -312746.822684757 1654487.86886843 234220.658072246
 1551795.38011155 626741.814279880 -298539.438764173
 1432743.36279420 -156664.831736987 901500.186836355
 1307351.86234841 1083463.76110285 83290.9742470289
 1590733.81191256 -145982.023326448 -581597.101526191
 1672524.24793235 267699.353503015 -144912.719291304
 1590984.84327811 529299.793212809 280372.889852449
 1576821.13982387 -153565.033714880 -616484.284815679
 1606743.53055873 -541409.014726440 -123496.986929266
 -663906.897392309 -1135676.74396692 -1076785.01327220
 346154.478702696 -1026592.65041015 -1310070.45879141
 -359346.206993523 -1295961.50976316 -1039881.75709152
 -1310726.75732322 -193028.961506901 1065239.49779217
 -245565.117960294 1610988.97816301 484161.424607986
 -1154481.72510771 -595984.070805403 1096346.17422534
 257551.410848610 1495581.30468959 -766096.489897247
 -9540.79096411517 -86784.8934798649 1697756.56546263
 1353353.35073570 -757919.746809525 695695.598267399
 1304945.11056713 -698323.848773076 -836338.484491591
 -1521009.24609402 -44092.6522165016 758014.980931779
 -1050820.43120786 -1065091.74133262 -807066.294613503
 1618910.75944832 -123675.925540710 -503817.643978572
 -1345661.63220516 216890.281669633 -1015949.49546136
 931068.963948970 -1027564.17850033 983474.678593166
 1395507.16163325 151305.736124330 -958992.354529573
 -184835.072560707 774710.266912755 -1501885.48108418
 1045855.96874016 354592.754795771 1292458.61477145
 600289.271920377 642532.829930891 1454924.17413359
 -322811.866065018 -1123740.75965858 1234098.53910034
 1190006.11551455 436646.772417270 -1132795.23355969
 1370065.39957809 -941054.756528961 -356842.747009289
 -105379.406445035 -1691487.08308707 -133291.516785100
 676033.360183164 -1544163.87815161 -220310.719964424
 -1118869.92623353 723316.961358692 1055908.45321978
 1209337.56329242 534247.303524880 -1068682.58930627
 868048.786649497 -370335.394620792 -1413981.25853471
 557755.911159682 -1600912.22840484 -126445.167998908
 -73595.4041006031 -950009.703320028 1407858.40200393
 1629476.91380458 -480487.963469306 62739.9740118369
 246463.716825997 -1015709.49552426 1340742.27836306
 529344.990016214 -1594247.74076335 261090.066099193
 1147678.47068271 1061885.55215001 667257.972651098
 1067721.04485370 -41992.4036654563 -1322198.32415978
 -1000451.72294476 1173102.33780561 -716189.398896602
 -259662.533904245 1641475.32847275 -357958.258043736
 751495.624065072 -1251164.26160347 871689.346899047
 453375.391313226 910732.837336961 -1361989.88746163
 527066.778235325 1201532.24996434 -1080981.43535228
 151011.932257393 1337068.33673754 1038962.78047378
 1385862.31220708 514327.352079418 839555.255183966
 -751062.991839423 -1066564.62552163 -1090112.05014674
 1082755.42766201 237722.571934605 1288847.80430478
 -57235.1958550497 -1193022.46874024 1209719.60446890
 -1024751.09821689 -172806.801048584 1345370.95115609
 1120409.69972362 -296420.873763088 1243710.88696801
 1019486.32425218 -1103687.13212191 -795312.736633387
 -922050.348832135 398770.319260513 -1371424.58294119
 1124811.45529300 -130232.686701670 -1268005.77181498
 1546637.25509319 -579745.644933678 402253.885423430
 189137.434154876 1672273.32951024 -240268.479851313
 1535511.83681412 327057.807975541 -652101.670942476
 211187.949862140 -1566971.01623044 -624500.988091118
 1069602.20791328 -1186465.80460466 -581592.650685035
 1063734.52417696 -454702.067012402 -1245678.48674072
 553562.441237210 -32338.6479856650 -1607022.97292166
 546109.027046576 1030336.35437637 1237001.18327698
 407614.304610402 -1225763.66530016 -1105148.86576737
 1636725.20328587 459485.922093349 -1815.57893450774
 1402226.85660096 -952557.534576174 -128039.001671986
 1692167.86192678 -101858.432760089 -127250.881088553
 1229259.77851469 1079618.05119494 461893.126664652
 1259480.96540178 608375.283712513 966223.168816776
 1459787.68661221 -186793.618668968 -850957.139954726
 825565.026454033 228612.221123765 -1468393.28500535
 1382506.58679984 150871.795368292 977708.156260034
 -949010.419780053 -1282027.41488254 588034.803934671
 820055.667551502 347175.461993388 1448094.57588458
 1224036.97871428 -662014.438340887 -976458.067798215
 -1005796.13904365 841052.636583934 1082129.65451470
 627545.319032294 -1486742.29187718 -534587.906807154
 1662180.03225699 160010.709163436 -318675.561220422
 1290623.33083358 568757.557917067 -949108.138317361
 830438.778471103 1314559.94235056 -687243.474453352
 1152212.06262402 -1249814.84993182 -19240.6765370911
 1342673.46320968 253221.618828883 1011487.41116744
 -1239557.51180205 -764767.250702880 876714.450198842
 805811.553439717 -1024037.36475136 -1091794.49345385
 1124262.81404080 -948190.493087767 -852624.133943579
 93296.0513702298 -1077127.91735078 1311903.69176334
 923029.314465390 -1353621.94942774 453568.630600694
 1679519.96676614 114251.357385304 -236979.553062006
 1526898.67844796 -485292.197844321 -568394.148866162
 1446210.76072135 -467648.158085096 761432.620665409
 92094.8094462351 -1653259.31056404 385035.320595907
 -637894.723195741 1443279.37367167 632483.178948608
 608329.148102610 222361.068423583 -1571779.62921596
 1440857.90493382 564690.932194351 703599.778913552
 142254.486801887 604278.142068968 1582596.47036205
 -111010.638067531 1636413.75181263 -447019.765910138
 1180910.56219060 1090697.05507809 -553019.148086811
 1620541.58237378 -135810.115372069 495379.240945890
 474999.653384490 -1629932.71820698 87719.2305199291
 -939984.847531094 478421.872131028 -1333244.53821442
 988097.633135477 808193.705914697 -1122713.67726235
 -285422.207059729 1665682.53549968 -184488.088093771
 742081.381805372 1322693.74397563 767982.084703510
 579248.776355280 -1581239.41689126 -232707.459184930
 832593.463638221 -309720.283854829 1449434.87955679
 158951.009519685 482541.408286707 1622309.57768897
 650629.210811001 -1302263.64398831 -877947.055115360
 1377026.25656889 965372.881534862 -248704.419576618
 1645934.68972848 420784.923821171 -61960.0277050779
 727201.697737846 996011.499272389 -1170102.04004794
 1130427.30169018 1244535.18063878 251527.930349393
 391821.996066893 -1643924.76271571 184355.357742182
 568034.909423161 1602264.23650531 -9255.16572878897
 1200704.95218962 -1123348.36865674 -431736.100440493
 1655390.40558629 -101859.570443204 -373238.841764873
 -306688.709619071 -135920.624864211 1666573.61647445
 -137600.011572131 1180168.07164872 1215841.09137514
 839443.275926030 -1428946.66825149 378743.192408189
 1078115.01876995 1105258.62801206 -711386.935153835
 1133921.18566706 1015926.69634869 756383.297238531
 628074.166328306 381582.074559923 -1532944.21358559
 1623684.91435815 434324.809235445 -254969.133363957
 1134157.27167182 519625.855890380 1154849.01740622
 167754.061026276 -557461.859025323 -1597214.71654290
 -1626609.93213806 404291.788299566 284056.822807269
 343322.651102225 -1075381.22949991 -1271095.89271597
 329303.967434072 -1661081.56035788 149555.831953144
 129369.195824979 -207863.739060503 -1682277.11069116
 1100563.08055236 1259209.94398477 -305206.852306746
 133571.609235071 1071478.46945641 1313047.03445753
 1668689.97021297 250142.130155613 -207129.664779957
 -130124.608830241 -1605260.49283022 544248.414177977
 -1091784.66066889 -1284943.38905371 216625.810224178
 1240553.34123490 1137175.13788378 -240541.292359450
 1419154.07335813 932308.990766709 -82472.1880792859
 1022175.44477948 -1281320.38463657 450971.653216326
 1131870.34410918 434873.154615309 1191534.66736016
 493263.544682070 -73016.9520064395 1625226.01511524
 1133842.40465049 -476323.606467199 1173676.79679649
 1204884.29569998 925508.930487667 -762684.111256519
 -113224.624847884 931868.876483876 -1417321.62241629
 -966149.666223055 -368963.086770441 -1349229.80365018
 -1175450.64124785 989198.967556854 727874.434620746
 1651279.93257888 181817.310783887 -360855.995878691
 -1122027.40740899 -1238551.06434761 -311521.681470933
 1520978.38026904 -261449.953018260 -712929.652084218
 585831.285241553 -1523907.53579837 473822.253138416
 -929948.260862009 -1389407.07531101 307805.476227167
 1634930.42991829 79047.2199166757 459079.542509397
 954727.389638102 -433390.796219899 -1338158.44698104
 1631964.35094105 355314.410661051 316929.056468700
 828669.648696636 1482585.97226003 -72425.4664243069
 1663743.09556278 87522.5026565620 -338080.942225233
 -1693060.21723757 -153315.604486659 6436.32102705104
 604760.345699581 1569940.82972520 244030.152708807
 -414139.554341145 1595633.62539966 -415261.078147300
 1186221.29666371 -911061.940642550 -807988.351187133
 898500.212714907 -361345.120833427 -1397185.41053117
 1580989.73364351 134961.812503668 610128.487516809
 -138225.206612071 834716.458273625 1474497.27925968
 1140473.09494890 -946440.494107702 -832809.408454811
 1622410.30884949 371486.772652083 346095.893479582
 1563482.23909290 -353961.416453638 -565892.749293707
 -134439.406744984 -1044977.41671826 -1334147.01006407
 1408972.30264198 -572854.170531648 759364.964751643
 303024.955964434 758430.396831441 -1490959.15746370
 820420.489024890 -749302.879343399 -1286645.02338285
 -1044954.23233394 -228154.101851232 1321369.12259060
 566487.648916210 1404715.99444805 -771922.741320143
 481955.930520334 1445954.21415334 -752950.789632686
 608077.220721733 -1309123.58584636 -898018.669416238
 1098182.56345508 -1253810.92186534 -334594.126568922
 986538.162225390 -426457.780892979 1317146.99847389
 1586351.65327152 315968.731863224 523117.761739597
 1069162.78186259 1262118.28374621 -392362.566656624
 -21162.9521463303 -1633094.57003068 471756.563062724
 31370.0091551090 939803.829698217 -1416257.28037323
 1642443.31411978 131662.408458231 -418383.759367166
 410829.685321937 1324796.60572682 -982920.608753816
 -745919.027109502 -820780.293356461 -1288380.57849135
 1581248.56463594 624115.146460125 11543.8639900612
 312732.378932063 -656479.601240172 -1536630.40199101
 861318.310299861 405700.523732731 -1408381.28835382
 870067.722056874 -384256.540414466 -1409017.05815915
 1475108.52607692 -5625.93556690630 -844998.926120133
 79021.6973839293 224661.251804007 -1683235.84006532
 290232.391470416 -341319.724754790 -1639898.16892229
 -307744.223926295 752458.238397537 -1493017.11045375
 3096.29547888933 627705.977283376 1579865.69651886
 216173.738842899 -784676.229841532 -1492498.61941523
 475789.633659172 487418.153868098 -1557577.53186873
 1462424.22086399 -779164.189560079 379761.193301182
 816781.408185344 -1480411.50760888 176776.410705668
 723586.034934106 -550606.897512804 1436403.59734291
 -662060.894022749 1292377.27522583 -883988.886290800
 959816.465599876 1112403.10646187 -855167.633331241
 21873.2826697340 -1055564.57079884 -1332405.71763240
 -173519.682965150 -1104798.91922671 -1280355.52394605
 608114.304879227 1224490.74859199 1010356.07525955
 1252845.40765505 -388791.330911072 1081304.62198497
 -1377931.18943085 992949.244299989 73194.5041500390
 839507.301383175 -1166919.59676751 -907483.413404498
 1147439.83268394 -179786.325639156 1241393.85671246
 282647.465574346 -1623882.01946931 -416074.028327508
 -1259791.87586478 -398037.150597616 1069808.79424747
 1231083.81441579 -1167158.76231748 110331.615727352
 -436052.192985113 462676.461148740 1576638.50558451
 1543698.37745644 -327085.852072783 632463.567972250
 1434775.98295136 -359820.335882458 -837822.895743127
 821220.562227895 -1289082.29610249 -744220.143539019
 -1574002.09010688 -487798.739437485 -417815.521662831
 1008535.03356138 -603814.363201420 -1228114.53084434
 434917.750835580 1476399.10403196 -721867.186968456
 -1344726.62449401 517333.907435473 -902261.566063024
 1544451.06440400 498846.588987142 -505789.472327406
 -516804.657283995 1370385.74211593 863108.257413249
 250997.427659115 -1065880.90329277 -1300345.41230563
 -215698.283281001 1684340.28248441 80449.1354207768
 -408715.078456598 -811617.903268142 -1436742.27463969
 1331636.36147650 303874.809650183 1012128.79657368
 1600209.08004914 -311167.711250553 -482188.298907585
 610348.621102002 -182121.430770462 1576168.24773658
 1442342.80225052 -772219.461051631 -461870.484843134
 973009.624170620 -158965.142722184 1384912.39963785
 966446.947046807 -736502.383887946 -1188925.79123816
 -439607.005130418 1403812.24561896 852089.701903803
 1249141.44575550 1003207.11009139 -568525.410828689
 626450.956681055 1429223.60688583 -674447.240630178
 1072110.53913930 1312059.38253548 138127.363570934
 -876461.230921031 1254778.78554558 739828.297672605
 1363148.23838430 841255.050851184 -569312.585147351
 287759.803999016 -417801.370635013 1622540.07959679
 1577768.17736406 262037.014699111 -576180.684703058
 -20558.4548754587 -618307.535322461 1583437.12906342
 -23160.4114721807 801019.551405493 1499276.91691915
 -555260.726389287 1582812.17728298 276389.466467770
 -897920.393655248 -1355569.97962655 -496154.206868461
 1006702.01005770 274425.693471640 -1342103.42437101
 -77627.2733828935 1035306.33059330 1346148.13756161
 1273071.74044966 -1085342.33082586 -302192.601805470
 1348123.39733004 -989852.699398387 -304556.955371297
 856676.595847914 -1333353.22671569 615040.147415822
 819311.051919815 -1146095.41383540 951417.207426636
 1343800.19194728 95770.7439845499 -1036836.05681858
 553535.598249091 -1357892.03477567 -860074.161548765
 202785.173304259 1332954.47108075 1035427.71428710
 1067252.35630669 -1166492.66216609 624713.756107933
 1454865.15645360 -875352.982758129 84406.9435157700
 992367.063449994 -428722.054445643 -1312023.25109410
 -405607.556958757 -334209.508296191 1616720.91416619
 -1095893.11430278 -63784.9341406293 -1298056.14832350
 1555755.42709851 -94762.9542893124 678708.356768860
 1348343.30078585 -1028903.50252679 -115446.635784701
 1100095.74321167 -127635.148164662 1289766.88774388
 -374522.751323650 -1567960.19386611 -539660.577763767
 1422979.21047514 -929244.165520456 -40440.6651991866
 1329752.40073489 -1041960.12476256 -189941.178117279
 1270454.45079751 388587.252853700 -1060634.44945392
 -803043.056346297 -1056760.75382079 -1062251.64572154
 1681406.62875635 86555.0925193224 -235329.481224079
 879063.989013810 -883029.944550407 -1156505.34812703
 -792444.025645741 1318830.32756235 722993.107380805
 -671089.195280166 -59536.3956745424 -1560799.38158890
 958188.200703295 -534400.457198401 1298572.87950239
 1222745.04788203 -368527.172641637 1122088.35253946
 1323640.55644800 930741.074218114 -521245.364573478
 -566706.270100662 -1586661.87146884 226601.211505167
 102805.776775052 -563820.927681602 -1600480.21973717
 223885.922807679 789509.321144067 1488808.29034338
 105372.269317016 -1022494.46995796 1354031.66276286
 1151238.58229930 1249428.79174343 -59811.5456082297
 -323550.051978097 -1362730.59968905 963473.236024801
 -471852.146523724 -202161.897581089 -1620643.73598498
 1552798.98270123 155085.562765322 -674361.763109224
 667610.784287581 -1545405.94347851 -236677.651171804
 -6861.04815328786 521027.553897698 -1618172.80106224
 1330304.10834227 877446.828962511 -591927.395608032
 967174.583924698 -1203775.58613950 -710983.588013535
 -361297.433538802 -502477.023620092 1583344.87880947
 749964.561930436 -380625.052071945 -1477388.82004153
 1148171.94498548 296549.844946790 -1218096.61940681
 -405012.676291727 126747.296997706 1646177.34607994
 -97021.2476600942 -1632508.09759420 464224.287162855
 171414.126327054 -719678.501700483 -1530581.60562764
 652496.896494746 -870946.714397237 -1306024.35687294
 -137915.277102899 -1680759.79550160 -214536.444845708
 1589905.67031567 -505623.766803822 -326411.651050029
 316405.423813343 -1622512.18552330 396663.352995839
 205139.144970980 1003183.03137620 -1357034.16934116
 1510654.96748191 474475.132742762 -618704.224675230
 886049.338929396 1422440.39054754 285621.960503281
 1600255.33412574 -529727.419235684 -220389.942855872
 1429016.11930901 686982.780189164 -613161.961049921
 1015378.75669410 -1325860.16931007 317963.507169339
 984263.068478842 1364528.39940096 243492.216008785
 814575.664834642 -1299777.23165344 732833.974604432
 1680836.09929785 254528.773189016 2260.73352434279
 1574190.06776069 26461.2682947455 641268.611304046
 1575592.42254109 257294.851848253 584215.608524354
 -1137541.71500166 -626010.828325107 -1097319.13746676
 500081.181339372 -1620885.69050842 -112465.062909572
 977604.141393696 512848.682217757 -1292778.54711370
 490977.200425391 -602126.187336665 1512079.84021541
 -181340.000493002 -444986.842626836 -1630675.47786499
 -1056882.14365708 -452304.015828506 -1252366.24502748
 481920.708157792 -1320389.41066618 956203.030349367
 1594271.01873343 560523.535388528 -184697.821054321
 229365.923356141 131540.457509053 -1679311.87730013
 963969.542543768 1383663.61559568 -215029.579185378
 1029570.72080152 916075.332341755 -995384.406319077
 979246.060027227 478500.433914562 -1304651.09844154
 213455.092114118 -694550.342965762 1536891.91055737
 1132330.21213223 138607.106567437 -1260403.25320969
 1598817.66237507 -68442.2355110557 573670.413108229
 836706.205240052 1442022.72203870 332405.167283699
 1509141.19492134 314309.006127877 716730.564757991
 1691344.01285376 -154596.202266508 73860.9804193586
 939865.320602529 774682.800142141 -1185967.84876009
 -493432.292791568 -1489228.97615314 654768.378143236
 -348957.450696939 1255535.46345757 1091723.13230209
 1444761.20112378 723206.005650433 -528808.230948164
 787203.710253387 -1108353.28639242 1020717.05732118
 817225.169639637 -1398282.21935091 516671.904746690
 1641382.15255086 -295710.861263764 329271.492568285
 981961.009232726 1289136.49532907 -513692.196512004
 -300203.465245107 -1497445.00591620 746683.556609797
 1190146.42309789 1183762.49044146 268808.217529025
 1023223.89213800 740086.844562682 1138105.58783586
 -1135609.25148164 1011018.45971113 -760416.531956426
 455287.436117054 1637163.44918932 49083.5120226734
 666924.096868812 -87581.0081929600 -1561262.89138621
 50536.0136311285 483927.904771666 1628883.02044977
 188986.869653985 -422461.314591252 1635790.45136357
 1379552.16351064 -255462.626669259 959986.809559561
 -1093367.61746295 919815.609346553 -921133.268254830
 -707529.277986351 1396475.67741216 662765.420935918
 853050.816674327 -222480.898074440 -1453549.63938741
 1636146.54886990 404161.525366022 -222885.468424797
 931876.899960230 440457.955228934 1351888.39517027
 201461.513777121 1332999.99346949 1035627.47929793
 -598377.183935665 1398903.60418769 -758296.414297157
 -1172072.98724366 989755.981492619 -732548.981074511
 -507371.561177345 -1589862.40242461 -323900.664193680
 -816040.866741207 -777925.349290351 -1272363.72737506
 1669578.45382405 -320102.779236564 6480.52864532801
 399628.244404231 1649180.75774121 102469.969115460
 1588144.42193006 523620.021795862 305972.822105060
 516468.250287612 1389397.95687971 832366.424036523
 1088385.92272473 -1269635.10145867 -305684.138218959
 557551.605770345 -1601788.64059196 -115798.781398967
 995814.202245176 -1373904.60637672 103634.970852696
 736425.508353289 -849028.462880404 -1275471.73228792
 1316514.30887610 1420.06826093634 -1075540.82113634
 40072.2959472908 42492.5051929205 -1698996.35023150
 712437.005334491 -1118940.01585708 1063205.88520935
 1050420.27414188 295712.037352481 1303522.78025225
 1072029.32385824 1300888.29913153 -220097.164840220
 -60569.9978209492 1660321.08247322 -360090.514258449
 750294.415880897 106817.708051432 1521725.42422889
 1024379.95684335 1256473.24638252 -511781.872620144
 1247497.54189838 1124845.76769551 261671.324097614
 997624.450451605 1336846.19512619 328005.650008904
 920678.644414678 458764.850579525 1353471.70106785
 1033167.89412577 1029443.85949380 -873389.628229130
 292713.491209057 -1351408.35524180 988946.039704319
 1541750.44430089 632369.859210602 -336324.142249644
 874330.934788698 -115449.032317701 -1453346.80562088
 1538210.64547822 -391583.325234183 608745.028346048
 -618736.828167112 -592953.021018440 -1468186.45012642