# OOMMF OVF 2.0
#
# Segment count: 1
#
# Begin: Segment
# Begin: Header
#
# Title: Oxs_TimeDriver::Magnetization
# Desc: Oxs vector field output
# Desc:  MIF source file: /home/martin/PhD/repos/ubermag/oommfc/docs/ipynb/thetaevolve/drive-0/thetaevolve.mif
# Desc:  Iteration: 815, State id: 1639
# Desc:  Stage: 15, Stage iteration: 50
# Desc:  Stage simulation time: 1e-11 s
# Desc:  Total simulation time: 1.6e-10 s
# meshunit: m
# meshtype: rectangular
# xbase: 5.0000000000000003e-10
# ybase: 5.0000000000000003e-10
# zbase: 5.0000000000000003e-10
# xnodes: 100
# ynodes: 100
# znodes: 1
# xstepsize: 1.0000000000000001e-09
# ystepsize: 1.0000000000000001e-09
# zstepsize: 1.0000000000000001e-09
# xmin: 0
# ymin: 0
# zmin: 0
# xmax: 1.0000000000000001e-07
# ymax: 1.0000000000000001e-07
# zmax: 1.0000000000000001e-09
# valuedim: 3
# valuelabels: Magnetization_x Magnetization_y Magnetization_z
# valueunits: A/m A/m A/m
#
# End: Header
#
# Begin: Data Text
 74350.2754968883 1464729.29286824 -859674.435555260
 -1507772.64426285 -564529.080643553 545828.334112806
 1237934.86839164 1105984.11908968 366492.005290138
 -248647.845936317 768311.070794559 1495951.98693198
 806316.524305020 1496118.75512565 -38501.0804255435
 -1185595.89529505 1178556.88014598 -308813.946123091
 -172922.944868116 501087.974890866 1615242.55037994
 1152903.62716221 -380869.477731964 1189853.63276682
 1028493.71764081 -1337594.01809491 -207467.866259072
 -113845.299505557 1683589.61733398 -206313.470684099
 -551105.456405316 1533991.17670252 482860.068466133
 1648238.97721853 -341004.873587848 238796.880563665
 1579189.65147534 -522219.877704253 -351349.461368214
 -315870.157036438 -1655323.55906970 -223897.205615869
 -311008.948274669 474533.121086531 -1602526.67718355
 914077.537207232 1099339.78660888 -919735.989048980
 -158829.962920247 1498771.67446645 786420.059952556
 905253.483419883 -1057193.41119606 -976144.570276248
 1540393.68783438 -34595.5842322569 -718324.739955148
 -336632.500990907 1341144.78214748 988943.493125462
 251873.836743198 1680781.85332947 -39139.9014128847
 1651267.34741868 351814.882214143 -198852.799833230
 1246712.31214704 -629718.114976642 -969104.486838874
 -1471092.15991534 -216233.891592712 -824093.903121659
 337589.260366345 268801.468879342 1644317.26306501
 -574417.333013442 673763.388048502 1451236.58459230
 -1102606.27915621 16974.8102192067 1293820.40831923
 1556197.62517366 -539207.146232188 -421312.953582019
 450773.337982954 -385490.721344457 1593173.02937284
 -1429921.75102592 -645960.481271432 654262.059559119
 -592416.981944339 370529.794509645 -1549757.97816453
 -367150.941603333 120974.208198952 1655465.32039497
 514360.504840128 1421710.07182645 -777286.139544393
 682485.761786233 1318349.10803973 -828353.073447498
 -128928.790536866 -983848.434147474 1380369.38012847
 -1603662.88603177 194318.187889886 529627.973033394
 728909.023478081 -1518025.85822108 233000.277391226
 1514108.23708134 -320968.754610300 703175.159520260
 1018455.19007530 519562.227505353 -1258095.43261168
 186163.412010545 1379150.43828095 -976364.303228088
 348111.163286599 -1661877.22280662 83562.6370564151
 1026027.06245691 284316.368446395 1325304.74598845
 714104.867918285 1465101.59631064 -483251.021833813
 952010.459864531 -1233899.82965616 -679092.994134835
 1422472.87826136 602185.093698125 -709890.148923487
 -533451.726801710 -1326482.78422464 -919713.367483550
 1649827.10882084 -280720.217012124 -298775.284721691
 -493970.084426598 1545211.77854417 -508246.116699325
 -1277789.98492319 -682474.161380889 889652.613932787
 109615.218289009 288557.389971067 -1671741.34859808
 -927583.536900247 -1334826.58142629 -497822.036062517
 -1456321.10490355 435210.230175669 -761394.047102388
 -180515.331425930 1109410.29364358 1275391.31856770
 1133878.36312689 672547.643582679 -1073312.40780309
 854668.328973007 -905425.357043353 1157474.39292341
 1477635.89010566 433866.242270145 719966.846521449
 785306.320755735 380324.706128432 -1458988.38257521
 -338612.568615447 -1622169.66081531 -379350.919210679
 -1493949.69914634 302665.402921555 -752667.224140190
 978616.479949403 136645.808822541 1383342.94667037
 1075734.39381877 457611.953773390 -1234255.57066560
 1343990.96490953 942304.529002818 -442436.956935494
 1434797.51117071 -819485.432221180 399749.582008053
 -1003247.75739224 -1252080.84718954 561949.721406251
 -1656143.02809815 140340.396510424 357064.200934770
 559992.699997396 -577604.800524598 -1497591.69013472
 -299516.641713718 -1368196.32999119 963498.097525460
 357255.459622469 -332687.198924305 -1628400.36976225
 632552.520055034 1449707.95598290 -623076.361076154
 351640.330839569 -1372683.53976900 -939195.920654624
 -1624077.87560472 -363512.984966960 -346741.061502218
 1557554.80815911 -648978.508359302 -207002.210780916
 1374802.79627840 577196.754232127 -816554.455164499
 -436741.500419190 1572523.67851591 475842.560431911
 -230115.122807243 -1361226.18514972 -992023.337990664
 1604865.12161484 -560698.564734510 -5006.08917785419
 -1058569.20881421 1313520.29094763 -209989.703126890
 -493634.591976226 -1120835.20698337 -1179005.22831368
 1047211.09215160 -346968.817116829 1293430.15598957
 337563.571787963 -1189097.55794599 -1167089.47072992
 440217.715529714 956333.432598402 -1334778.90627188
 -1513499.88001708 -620106.332936583 -463450.373869973
 1267809.37699616 583153.037490828 970871.731211608
 -382402.092320564 -1574752.70216982 513733.945537681
 835188.763671089 -1212734.34736302 849549.958368286
 -1590938.87954453 -167164.147930569 575299.599513366
 1153942.40146484 -1242570.67927015 120145.915950805
 1548690.83089321 -674022.200927620 -193004.619022381
 765979.567423027 -1071788.24629572 -1074497.67677402
 -663079.482458249 -711905.602362718 1394100.43155702
 518914.788302983 -1383651.26823527 840378.849324163
 1380862.45970077 929369.226472547 345675.727054946
 933554.801660368 956896.031553091 1050154.94908838
 -1196553.89084894 431956.641631289 -1127684.46209251
 -521513.778376486 -1369062.31360640 862375.649253953
 1444422.41223868 -556126.757725098 703112.312767147
 -1586320.38067584 -140649.646089328 -594815.372117619
 -372152.449983036 1573468.01832507 525072.327665236
 -1453963.21520228 -790907.787170297 -387886.376445530
 241064.403003038 -1671796.68907507 192311.684518726
 -1072582.59943468 -408089.627243937 1254204.69761752
 529672.002321656 -986573.636862380 -1279109.07627329
 -126994.040661562 169484.963216098 -1686756.46163875
 -321061.805351979 -1073560.34541066 1278431.65711190
 -976656.014283413 832735.196284150 -1114762.36150744
 -160293.529520802 1618942.05271919 -493287.557446091
 571392.636278904 -1543612.02684304 -425173.336172159
 1551453.23670654 -76389.5538341531 690765.872331447
 -1586807.59446776 -507596.307055794 -338212.429107463
 516448.202224645 -721728.692408028 1449961.70603707
 1444409.15411983 426632.376677419 788458.629647368
 1328197.29329739 -959576.829888617 452884.375551189
 -602389.952142599 1137625.04299658 -1110376.33580002
 -725742.144967717 -759895.041881011 -1336359.93068571
 1693951.36663798 -49492.2080157529 -134459.245911277
 -912252.992444188 1426171.69186822 154365.744549657
 -645067.973325980 979548.560711417 1230598.19884368
 372778.832581170 320046.708694041 1627453.85379541
 -336461.757450974 655119.006456498 -1532192.08102393
 -7203.76900294632 -1620107.46491614 514975.638098703
 1669248.14122822 92293.8668672136 -308370.694367742
 1342194.57617899 -136946.344841931 1034291.74719231
 -1056923.33815198 -620791.787557049 1177934.89368955
 1003909.96812081 696800.876329855 -1181792.41605860
 -1553908.27043797 491794.902066765 -483225.476734831
 639378.473022192 -340386.374061406 1537963.68116713
 1090252.34315164 1226836.62372924 -442969.216683285
 -687411.242047871 1553785.35430166 -56717.3435895601
 -585687.819850552 432279.256852463 -1536263.13559032
 1299584.99954877 -245698.600939605 -1068040.74194019
 -1092109.45941011 1301898.06490999 48562.9205319246
 -1624721.34440215 -404624.999114037 -294209.386553259
 -773543.567613277 184276.671210151 1502555.30928210
 772069.396370322 -849410.710235337 -1253957.85117597
 -557807.649287558 1234672.93834674 1026856.05695760
 87319.8878758918 -1431086.51871767 913436.704498937
 1513348.68242628 716023.868995219 295102.667605280
 1101264.04783603 -670682.023592882 -1107882.26819151
 679263.296813988 1480523.91083911 -486467.185979764
 325823.702744260 1399106.45084169 -909032.482336678
 -820381.817793813 -1470330.84030547 -234735.794202627
 1568840.32577431 646945.676074484 -101001.606090562
 -188477.293728888 -1106732.98307312 1276565.08409352
 1684483.07956601 81422.6048740712 214212.777563209
 1174452.09218841 1212989.89212178 -198287.177509442
 -1445917.81588873 481710.108232422 753177.961256357
 410570.848614859 -568180.695800514 -1548742.15903982
 1458779.83247970 -871807.298499631 43742.8237915740
 1239662.82987359 1107258.47860608 -356671.739537553
 284416.164405325 -445080.473813036 1615862.25194332
 1266030.14645076 -1037111.15953331 -459965.336791088
 -931930.458552478 -394092.606626549 1366088.07835529
 659619.402866477 -48002.5765346437 1566077.26374151
 1312896.14645427 779691.247623329 747251.809636557
 1514651.33208849 695161.637602955 -335531.875993536
 1179529.00590516 1181289.69673009 321350.239812777
 1556520.50347767 -674483.571679903 110976.726332750
 -974784.150332927 1389190.31319443 99730.3062588708
 -638647.196807780 -1447894.30623004 -621073.132566684
 157873.941083699 493008.643429359 1619264.73938965
 68162.5622323286 1678800.22469741 -258812.037327972
 449634.169862414 -1111018.55619222 1205598.14245407
 -139855.747609270 1063104.03861066 1319185.42023112
 131571.645823468 471299.753633907 -1628055.72516420
 105744.230940164 -195477.484279385 1685409.95332372
 1395395.47594860 954553.461366584 -178042.565402941
 -1319058.71346803 431296.835845897 981869.212173083
 -1228657.31280386 1036555.00713341 -553131.923577244
 -1187252.56250292 -1142981.50742479 417162.590023604
 1529724.43486853 263794.710877215 -693076.838365974
 707573.971509231 1524027.16388655 258225.247755885
 508902.964347786 373808.756757321 1578380.43140733
 -1345175.75543469 -482935.663563576 920475.600898323
 1049485.33580998 219782.826326482 -1319195.22405585
 306236.605247494 -783532.122278089 -1477259.81295265
 -531991.144727609 1351028.09800442 884142.805396254
 1667629.51703687 165821.289498588 -285508.482985015
 1155340.01115253 1145723.09886813 -492451.052745436
 -523843.167407723 -1610023.80137622 153008.806812911
 1446056.55033175 -460979.637802636 765779.489653514
 326559.440889413 1029061.81351214 1313160.58254012
 96478.5073744540 -1694230.43445432 101366.328647724
 -1300525.02290278 407903.036661085 -1015996.93773476
 585423.838188148 -1590830.47630481 128597.532405865
 976595.331663501 -1375665.01530282 -209301.991975608
 1358210.49731741 -95675.1722048269 1017895.13526708
 385178.732265399 -944555.269405496 1359945.83982184
 1681191.77281374 170243.021136702 186041.760843252
 1035031.95913656 1326527.03889686 -242970.900812153
 -1181276.78187229 -898591.125261307 -828926.507122960
 75210.1010097902 -470998.640617915 1631718.02749194
 -1178094.90374888 78427.6824309297 1223086.87197167
 274507.297226100 -740714.158817084 1505319.99212710
 -1049785.65713030 -1139394.44140421 699807.388486782
 -1232833.65501198 300498.850557348 1131292.01353298
 625610.526078017 1317559.98413183 -873296.718117575
 970454.724741332 1393983.36486463 -70908.4318533905
 -1153049.27267085 -1077833.01766501 -631469.208136345
 1074677.43822511 -431338.879486362 -1244594.38164141
 1474362.55764046 -799967.263336694 -276237.988367777
 1650937.84661211 232653.272166124 332079.330242285
 -1605290.60342340 188504.969102659 -526790.238315147
 1489009.30373628 817260.956089013 70255.4128823538
 1249614.54316590 790991.361574374 -838329.385995138
 -883188.197993344 -1061426.91813899 -991640.814193946
 232182.039927919 -425807.860352592 1629349.30766759
 921379.401924278 -1209158.96246232 -760916.947640607
 17046.9729474867 628829.293760985 1579329.95919833
 -771992.258056983 -1376526.71006134 -631824.477198986
 -513360.992091394 519517.504999617 1535109.78558470
 -1121049.85942001 -1239633.99929264 -310732.618970262
 -1335232.42363684 -263232.166188143 1018755.71240253
 -467920.627148176 -1613452.18239328 -260427.229412789
 1378737.19043126 -981478.167219857 -160575.113241328
 -865211.917699274 -1454165.83213127 163737.809112934
 1154455.23656697 1167429.67252405 440841.316658841
 -1273631.57764609 774948.919331185 816894.593475896
 -1068051.05121406 300435.101736758 1288023.95227921
 -1003261.50618332 -1315201.05897985 -392061.888825030
 -1697572.58264405 -22188.8057061767 -88062.3844585661
 -76516.6460158455 1534554.93660402 -727520.686597101
 1270670.11560712 -924293.245261344 648906.352309200
 -1358860.11222888 -1014253.80273818 -121607.643774862
 -952373.564989393 -750426.410131073 1191572.40471873
 -682400.478396337 1414723.06574431 650298.573222701
 -1685063.18103694 180611.460298306 -133946.169495746
 -2447.36500251427 -856135.394264276 1468681.78891566
 447519.093373328 -1633013.56442724 151635.614098252
 1343862.11722247 758152.672334907 713609.932193896
 -149291.924552697 -1490834.80329925 -803195.810830103
 969906.623003777 1217176.06010397 683932.439180343
 -1688274.15753806 53223.1997545265 192087.636241981
 -739270.537799741 1293211.61362166 819196.432081681
 -844668.270778122 -350018.497045074 1433186.15820381
 831201.894729414 173749.960403520 1472723.45043393
 1656455.33735529 216112.131064906 315358.941769162
 1431281.75697642 915132.924356347 -62962.3927871127
 794255.328340749 1480892.32791021 257131.068793745
 1274130.62057354 -815550.686300710 775543.834861271
 -594759.307967216 -1583966.97824651 -165257.306679586
 790319.771999007 -1021.53982172566 -1505122.45828830
 1468269.21577716 186059.435899042 836401.456427503
 -456076.571233678 -1317226.58363653 973092.127464288
 1647987.37477846 319631.636705351 268278.268571768
 -1313806.09893098 1022815.24398258 -343165.428166393
 635251.684041507 -830290.503523474 -1340549.50586734
 -235826.759658674 -1020932.18644538 1338687.12181329
 959761.471955023 489063.907487932 -1315170.86773672
 -3072.12893663243 1694612.29833953 -135202.516027698
 1641601.95731602 -440754.656820169 29636.9065109780
 -1527227.88201981 -738333.244454357 111530.338988096
 1035917.74370921 -935338.422223866 970575.326381314
 361982.344650058 -1406268.63866317 883955.484215177
 -611152.056575365 -796742.317803739 -1371748.82641263
 -100317.064450623 278204.749056206 -1674078.43429828
 1135573.27435972 -1220190.59989763 -334078.192166733
 -1329006.90992849 -770345.982421830 -728222.287992397
 -1550987.73839128 549123.561581649 -427668.504189634
 411858.374212721 -1366922.97074889 -922981.187040057
 -1190684.69288348 1057172.43980020 -595530.347387825
 602220.391520645 604848.100280059 1470200.45423212
 1553313.58174722 -593586.195625374 353372.813219442
 -90556.9274876237 -1694864.19906739 -96097.8126892984
 -1536132.31803895 512902.142172569 -516941.867167928
 826634.910267934 651759.516916318 -1334872.37488658
 628274.502746803 1570596.27846638 168814.926075333
 -432124.068852672 1484259.76135020 -707277.703561243
 -1683613.19673747 -34267.6237952331 -232964.232728672
 526064.985130282 332301.409818660 1582033.94541723
 -837913.509657237 1080835.12099956 1009800.17406799
 1471098.87835196 843521.249761976 -119749.702762037
 -80345.2860145833 -1243656.27980129 -1156228.21827096
 996998.372165199 1345796.55787847 291248.812362242
 1226733.33541934 392474.512492211 1109544.53755356
 1472557.17495468 -170683.570122413 -832131.290950990
 484384.985956189 1629505.33644810 9140.23344338996
 236468.575565927 1587488.94427379 -560322.643285378
 -927315.343828890 1382162.61067559 345995.333422223
 27624.8263849185 -1653165.15735205 395324.969467351
 -1539998.30515141 -413497.276876324 589427.876967700
 -329351.724019043 -1171309.06355861 1187249.98189561
 6484.90277995182 -483880.595832023 -1629667.91556230
 -855184.959672587 51784.6458585058 -1468324.56739071
 1634185.75755298 354659.016625460 -306029.233468413
 -673417.218756366 -1332466.18933174 -813045.572997100
 -48573.0149314665 1067823.17382934 -1321890.43859675
 -366465.936614282 -473839.807114267 1590967.80435536
 -619926.662938613 628848.626827105 1452666.62972461
 247056.490754637 -1009540.40712032 -1345284.82365904
 948782.502354490 1251067.16410840 651646.157140306
 1587104.62622271 -449681.527636749 410956.724150796
 736351.013262981 1196870.41220953 -956707.061562720
 -1405711.92033468 -871107.940095108 393884.442104842
 -1308912.43312093 1084003.84424653 -41035.4490678134
 -1064979.59578725 -1176810.31383325 609045.109833845
 1375500.52344899 -955112.904429982 292844.070766145
 -1531869.73453128 -737093.085575178 8300.57975905307
 -546789.200113143 -1476398.14842332 -641303.421144635
 896819.708801933 1192035.90673375 815331.102658211
 -1647255.77540460 -267086.659951147 -324365.729497303
 1198470.43106322 -504948.637538060 -1094849.53272840
 151436.208970020 -216913.291180867 -1679290.23659458
 423864.029368771 -1285226.27574363 -1028850.18576342
 -1515997.37987087 665564.280807094 385715.092183850
 -409081.187399484 -34389.1497983312 1649687.83971149
 1461671.74778505 518067.308125149 -696506.974824342
 -22537.7747865343 -1504970.47842226 -790288.496553726
 -242436.169898277 -199416.716628871 1670765.59596312
 -1459781.09311368 790328.901322746 -366632.497089137
 1374000.59612768 262152.675819125 966125.424777569
 1232233.86010081 53492.2185536198 -1169930.89393146
 1017532.55725893 1135611.58316915 751674.016505933
 1595436.77734146 502724.674179030 303066.645274417
 1113912.60775821 1232847.77221681 359562.335092745
 -327870.057791422 839726.854058169 -1441304.97667129
 -385775.935998659 1601277.15092161 420818.741432382
 -1589574.11713816 -573416.987476132 -185599.258075679
 62393.9799707798 1666024.32531343 -332370.183270627
 -24693.1604092888 1582212.95210893 -621282.884045382
 -408476.042062900 -1308084.26665775 -1006013.35696058
 1119393.88858043 -877272.519745140 -931316.406120285
 162445.445448002 1647739.39626119 385443.068768920
 1694329.08259109 110154.657413262 -84349.9338246127
 -561730.468581625 -1440152.70168982 -707403.050942367
 -1349031.06740651 -22653.7404499698 -1034215.63864394
 463754.405120510 1461528.86249672 -734074.407550319
 485879.875301179 1063880.99112416 1233725.24635835
 1158274.63625902 1146859.96241484 -482816.832358675
 369282.986906546 -1210328.35694528 -1135224.79886387
 1547154.91752918 410028.374020117 572877.293723261
 -99883.6078772796 415599.814807135 1645387.51022660
 674888.900544927 -52847.4875388219 -1559401.20398251
 53244.9312437702 -238617.862737402 -1682327.70080014
 -808753.589989684 -1279208.62155940 -774301.577685913
 771091.816235097 -1046582.81218618 -1095482.46365322
 1598910.11017708 186257.001106662 546621.248317582
 -1204395.79492888 1158984.72464846 310137.352134766
 1459307.90013249 -410685.741868621 769257.872261787
 -1515683.08694122 -349238.581911781 686102.902533264
 709949.557608463 -1535160.22153926 171040.111830744
 -86938.6097718074 -604668.219962482 -1586448.24116589
 -1221584.02518266 -1074397.74447586 -493357.837764548
 -1251573.79893285 664951.234049679 938830.592897679
 1581348.73338292 -330410.981788099 -529305.929063765
 717732.708327078 979570.293290182 -1189664.57453387
 -1176205.04358224 736788.960841191 -981673.939062383
 -634725.297174235 -1311077.51083335 -876469.941135527
 1004586.60275332 -1213680.12152178 638581.490642670
 953023.370524417 692114.444720098 -1225856.45597030
 -822580.641032418 461346.206943109 1414397.66909377
 625705.677483350 -358119.399972467 1539559.32023695
 204045.895414263 669202.288396987 -1549365.53781502
 15600.7364843643 -1124964.44733430 -1274445.60859025
 -1468036.81263566 760242.420245167 -396105.262785420
 -547441.966750878 954454.494471427 -1295887.30645192
 -540567.194048746 1529796.63343250 507453.809776668
 -720182.909441555 1539058.86283340 -51326.3449143041
 195811.307218774 179470.245761249 -1679121.30677080
 -651484.754448649 474487.679828958 -1496806.28553314
 -1460347.59374099 370112.875709731 -787655.612998972
 463267.074918057 1321770.31922845 963486.813871161
 896104.038491654 104320.775253502 -1440872.90489115
 -638501.632017050 -917046.548507380 -1281148.42769379
 -608910.271099934 681808.780953924 1433305.64359565
 1094956.33103323 -1114620.63272899 669844.368659673
 1448545.55297396 -60696.0763857207 -887711.533816438
 -1281102.07554637 -699998.300204463 -871079.704586007
 -474308.845491420 -1617963.59822463 -217312.940039513
 -1061997.51651927 -1207835.64564483 -550721.642952808
 469866.363172449 1162758.48760848 1147701.31142799
 132634.924961960 -984575.085319772 -1379499.86518589
 -778039.521935342 -1495279.21288377 -220894.947484842
 535260.983391406 1107708.32014098 -1173233.97374493
 -538965.151785482 -612211.543444228 1491547.38149161
 768167.321855124 -815997.664725209 -1278306.21401796
 -930400.882560725 1343486.89056708 -468398.519003444
 -110422.567203225 -864168.626161821 1459801.16529952
 168393.908688421 694358.671509261 1542565.89059156
 1465466.07106954 -168740.280843416 -844947.283660276
 -260030.276347384 1434762.30473870 -873980.196734223
 946572.296607890 -1270479.05210632 -616347.195542809
 -1407246.66957871 -66443.6020898081 951442.094244817
 1275421.95713626 727985.094515477 856350.707022535
 944811.292893077 184644.252889074 1401155.99441916
 1500785.72469378 619340.702876010 504042.956816599
 -1404139.75464095 807954.695617625 -515364.685699633
 1404008.69728084 -431674.501587829 -855813.474209570
 -1576563.49774412 632677.680010553 -64548.3601440083
 -1437745.83369408 -860566.058687973 286902.381184883
 1253368.18169545 -1049409.21429995 -466699.584375002
 -1466508.83835333 -591480.012640890 624101.932121579
 777950.763433399 -1244714.32248077 -857600.644288842
 -270800.205960910 -599892.368000294 1567417.10953611
 124783.468982925 102258.754250183 -1692327.46034796
 -209545.365993621 311285.360405060 1658068.80556510
 282817.310043043 -1467807.95363200 809663.004215118
 -238447.239915960 -57481.5513996355 -1682212.46726600
 -131500.613213580 1553784.75928252 677097.120467817
 779106.430065135 -1072492.44864862 1064308.75136065
 -314089.329615271 -1473696.77595235 -787124.961851341
 493682.925510474 871034.034220664 1373891.14572032
 -21596.5196540396 923523.528722568 1427108.22372890
 1437363.44301087 -778394.657918659 466999.024859408
 -605152.567510852 -1233876.08152522 1000669.86837568
 978833.618613863 -409452.085308256 1328244.60733255
 1602900.66540785 378212.170041668 421503.275512100
 93284.9070098522 -308586.947604609 1669153.08521784
 417375.869715559 -1353049.75557980 -940772.949390353
 -469125.839688794 -1571539.61840746 -447419.461257574
 -489705.545345527 58615.9950730436 1626884.33638641
 1662039.13679509 335407.351134789 122995.189199294
 -1591898.43128199 565607.955138421 -189597.008325764
 933371.916381031 -1331861.97914310 494934.878771157
 42088.5064861676 1594704.42100459 587491.589088886
 975650.812000590 1154660.66759017 -777730.181851531
 1422697.58998464 -487125.255705339 -792868.559539293
 -124190.619729597 -1189006.36611328 1208652.36992001
 -1649962.31197253 -289447.354817276 -289559.316651257
 -1686212.08628390 213130.908582959 35553.0009519984
 -948087.437179646 -665205.177186195 -1244440.55049119
 30293.9928116428 1056345.08959431 -1331622.06563631
 -730695.994402066 -734457.814201421 1347833.47744565
 -688108.246511917 -1546468.16767724 157934.313698135
 -996757.191232040 -395060.223539784 -1319243.16238664
 287361.436343302 -1670408.05286767 130997.487829145
 -1071052.18882809 1147132.72912933 653401.645671979
 1108081.26106905 -486140.854774245 1194078.30069347
 146403.324607988 1346795.05279996 -1026990.33700287
 -1032197.05525830 -173771.943528301 1339541.91825359
 1231192.60955584 -1094215.64214972 420543.560942212
 1192081.77608262 927870.323760258 -779742.073647915
 3536.11030513027 1390211.68466866 978416.561457666
 879364.197422780 925743.845380204 1122371.12446448
 -1475037.69623087 76243.9049792244 841695.112051536
 1335039.73196608 391518.083871940 -976925.024796267
 1515039.51915465 -408568.121239060 -654008.674030278
 -50129.1065563185 -523404.677478101 -1616643.00829525
 899303.735197780 995067.891264271 -1044553.82036264
 828066.746796502 -858034.472730396 1211644.46371703
 1534461.09885524 -337812.542292561 -649085.373714272
 -416742.108108866 854489.917201934 -1409316.49984282
 -1257989.50134094 -1044258.70560607 465817.743631475
 1005952.19053676 1054087.79840866 -875762.013106460
 54290.8748974028 1697368.55255179 77411.2247101655
 -446356.583057522 -600707.534641148 1526406.32158890
 1310563.76927616 -296564.202879920 1041379.98839562
 240277.954454517 -1403369.32866304 928881.602773462
 568497.515518554 -110.127005905733 -1602126.88721002
 1317703.86940498 -1028883.94387596 308308.842866045
 1153234.49704982 -1122961.50323661 -546815.926123968
 -478981.016649715 700583.261628927 1473010.61748196
 1655873.03535884 -153356.492934428 352939.480430208
 1200476.15831329 -727359.843798978 959064.466524587
 -1057297.19516619 -371780.043578279 -1278241.85516304
 1583558.16684294 190537.166977735 588250.899043183
 497572.370943025 1150782.34903725 -1148094.82222439
 -401710.095198930 -1395504.68222710 883852.748650765
 1656497.07671452 376524.552186473 -65166.6819549831
 -1214760.32081290 289271.560737197 1153550.74753008
 1027445.69319231 -789485.141962957 -1100485.60106905
 606008.883524319 -476029.109683357 -1515305.09133431
 -391660.635510877 -1490314.79304024 -718027.690438629
 604821.433311526 -1588136.13453272 -44884.8749409042
 -466453.880457851 -959669.846777719 -1323425.31432319
 1645273.97288016 270605.175403187 -331430.827184412
 1433372.40579584 -515161.661546683 755017.886394425
 1225260.93382219 -984556.236779113 647599.151225919
 -731803.405978466 -589972.212024250 -1416473.28391238
 1574276.52309122 -447030.941822821 460235.554794319
 -941528.836782162 912550.195198218 -1082023.84019546
 -847310.054883883 -1117611.74513551 -960733.916351365
 726474.241689783 -1513584.23859286 267016.720159111
 1236789.52753317 -883133.322706541 761857.728785092
 1363321.03687604 -1014572.82480617 -44696.0129772349
 1559665.32344687 -633554.666651888 -236754.225307551
 -629236.338212026 -1552592.52247877 -288994.965036629
 1233363.31786954 1169311.12538913 39069.4020306984
 1140071.16966623 -434208.474031206 -1183934.42773464
 1613123.95802258 9031.16869805804 -536422.905966456
 -1590505.58730689 25841.8699813144 -599686.730302934
 1198521.54719457 982085.010085576 699324.769957094
 -610467.315721683 821966.342695039 1357092.84424910
 -670306.495916056 1523327.09634231 -346646.446804312
 228437.070289552 -1626823.98302919 -437333.091771678
 357006.647612826 1632923.49232575 -310011.486514493
 227272.085327807 1189890.62100491 -1192689.27607961
 -254588.265169306 -427931.835117332 1625441.22001726
 -71399.5144899375 866283.953580304 1460977.14598822
 -264273.284350355 -1614165.34619165 463281.627449955
 603917.209453894 1527025.28361384 -439861.100041250
 558213.012809623 -1047771.96092322 1216787.63563455
 855903.436467137 781686.789755863 -1243541.34236258
 -153551.766072712 1334729.77919830 -1041594.10120124
 -34144.7138213897 -1530134.23124699 739948.223110394
 112248.876456628 -1621644.92804848 497662.452942634
 -1640850.13260474 -235665.947548101 376924.930851301
 692985.306296368 1012429.65953073 1176757.21784904
 -1033437.20716655 -1141744.32229483 720019.056241789
 1305429.93663413 727470.015373237 810333.300113160
 -35554.3728814046 1166766.16315596 1235877.26214351
 -1693034.23211074 138736.650108741 -66236.1745407040
 181219.469664888 -636265.884422070 -1565990.17498035
 1361754.79224425 -889551.400894739 494289.582093365
 -1516466.33981139 765143.054510187 -69899.5447328509
 298789.116139147 1183236.51029011 1183501.76374743
 -1072381.02624947 -731896.151263688 -1097418.31509481
 -568445.185367230 878362.770958144 1339906.30785423
 507500.430494450 -1000023.41075989 1277652.72706636
 1284889.35235559 405306.541108819 -1036718.84324422
 -1436763.68757956 -2066.80787787412 908683.572184494
 52342.0554822865 1680160.02460572 253619.007459608
 -624730.672967105 -1087826.99775196 -1147320.36032489
 -263703.551347594 -1336102.75103775 -1017491.95361734
 -460143.408524225 1561970.25463529 488381.989047782
 995764.305151511 1092696.72306240 -839325.514919458
 -1381406.56985309 138542.939126065 981081.924604175
 -890677.359990429 -991721.008252892 -1055075.01258932
 -254274.583924371 -777878.448429702 1490050.18554366
 967777.750079971 -1254388.19706577 616373.650890614
 278722.239763206 1262909.67724941 1103346.30110912
 1581200.85382248 560567.554206569 274896.120456297
 118259.329268423 -105995.274064505 -1692566.02025356
 1670269.42810785 -152210.988348918 -277546.126894469
 -619230.474739461 -1518402.76374512 448337.669848433
 919961.701463758 -667135.616177168 1264357.75691369
 607148.066868396 168360.982042985 -1578931.85559843
 -521987.734865673 -1546194.84748548 -476246.048024700
 1529282.64695085 -654666.286676849 -350295.073935888
 733981.053470948 1373075.85910854 682593.948317023
 1608457.60610718 -458719.374593731 -304040.564280997
 778688.217882989 384738.562700820 1461376.37099452
 21857.4009457991 -674251.607927382 -1560418.86146997
 778839.342384188 72694.8013499445 1509345.80020990
 90994.7459906613 -133815.112348224 1692280.55354581
 1639571.57302467 205839.850922351 -399293.141315586
 185159.754717253 1646173.42749161 381875.518793209
 -858516.291563868 1432195.73530152 -319006.509186811
 1022148.08979691 1018772.10594970 898508.029270379
 725443.040223904 558002.730594198 -1432607.88356065
 -1446173.50736432 -891781.589903328 -57513.3246045690
 644758.798626727 1549624.78361451 -270090.950609407
 -107308.200331414 1083079.09684948 1305919.07104129
 -383738.751733590 -880129.231226637 1402895.97146701